# vtk DataFile Version 1.0
2D Simulation C++
ASCII
DATASET UNSTRUCTURED_GRID
FIELD FieldData 5
TIME 1 3 double
0.002 1.0 9.998000000000008
ITERATION 1 1 int
5000
NODES 1 3 int
39686 10175 19337
PARAMETERS 1 5 float
54.5 1 1.0 10 1.0
PRPOPERTIES 1 8 float
1.0 1.0 1.0 1.0 1.0 1.0 1.0 1.0

POINTS 10175 double
0.0 1.0 0.0
1.85 1.0 0.0
2.15 1.0 0.0
2.5312 0.9845000000000002 0.0
2.804 0.8597000000000001 0.0
3.1897 0.7164000000000001 0.0
3.4784 0.6349999999999998 0.0
3.8514 0.5613000000000001 0.0
4.1492 0.5257999999999998 0.0
4.5167 0.5049000000000001 0.0
4.8167 0.5003000000000002 0.0
5.1833 0.5003000000000002 0.0
5.4833 0.5049000000000001 0.0
5.8508 0.5257999999999998 0.0
6.1486 0.5613000000000001 0.0
6.5216 0.6349999999999998 0.0
6.8103 0.7164000000000001 0.0
7.196 0.8597000000000001 0.0
7.4688 0.9845000000000002 0.0
7.85 1.0 0.0
8.15 1.0 0.0
10.0 1.0 0.0
2.0 0.8500000000000001 0.0
2.604294 0.7837869999999998 0.0
3.292593 0.5288279999999999 0.0
3.982247 0.3922810000000001 0.0
4.6644 0.3515969999999999 0.0
5.3356 0.3515969999999999 0.0
6.017753 0.3922810000000001 0.0
6.707407 0.5288279999999999 0.0
7.395706 0.7837869999999998 0.0
8.0 0.8500000000000001 0.0
0.0 0.0 0.0
10.0 0.0 0.0
0.07731723845774514 1.0 0.0
0.1519282425751394 1.0 0.0
0.2239277400896997 1.0 0.0
0.2934071239369679 1.0 0.0
0.3604546223708701 1.0 0.0
0.4251553247841627 1.0 0.0
0.4875913972919827 1.0 0.0
0.5478421134772972 1.0 0.0
0.6059839281172508 1.0 0.0
0.6620906976051055 1.0 0.0
0.7162336193950094 1.0 0.0
0.7684814453906067 1.0 0.0
0.8189005244790737 1.0 0.0
0.8675548394544116 1.0 0.0
0.9145061677623462 1.0 0.0
0.9598141211100796 1.0 0.0
1.003536214761839 1.0 0.0
1.045727959146647 1.0 0.0
1.086442924069015 1.0 0.0
1.125732791591312 1.0 0.0
1.163647444571104 1.0 0.0
1.200235020960043 1.0 0.0
1.235541970819574 1.0 0.0
1.269613116910643 1.0 0.0
1.302491705471632 1.0 0.0
1.334219497916676 1.0 0.0
1.364836752924407 1.0 0.0
1.394382355140304 1.0 0.0
1.422893812497032 1.0 0.0
1.450407316429008 1.0 0.0
1.476957806370816 1.0 0.0
1.50257897422722 1.0 0.0
1.527303369409766 1.0 0.0
1.551162359595906 1.0 0.0
1.574186245352309 1.0 0.0
1.596404256506202 1.0 0.0
1.617844598421058 1.0 0.0
1.638534488929847 1.0 0.0
1.658500200670047 1.0 0.0
1.677767074338693 1.0 0.0
1.696359576263456 1.0 0.0
1.714301309096868 1.0 0.0
1.731615048754634 1.0 0.0
1.748322778497226 1.0 0.0
1.764445709370288 1.0 0.0
1.780004311175954 1.0 0.0
1.79501833376898 1.0 0.0
1.809506836528369 1.0 0.0
1.823488220410919 1.0 0.0
1.836980229748437 1.0 0.0
2.162706666666592 0.9994833333333364 0.0
2.175413333333357 0.9989666666666657 0.0
2.188119999999948 0.9984500000000022 0.0
2.200826666666539 0.9979333333333386 0.0
2.213533333333304 0.9974166666666678 0.0
2.226239999999896 0.9969000000000042 0.0
2.238946666666487 0.9963833333333406 0.0
2.25165333333308 0.995866666666677 0.0
2.264359999999672 0.9953500000000134 0.0
2.277066666666436 0.9948333333333428 0.0
2.289773333333028 0.9943166666666792 0.0
2.302479999999619 0.9938000000000156 0.0
2.31518666666621 0.993283333333352 0.0
2.327893333332802 0.9927666666666883 0.0
2.340599999999568 0.9922500000000176 0.0
2.353306666666333 0.991733333333347 0.0
2.366013333332925 0.9912166666666834 0.0
2.378719999999689 0.9907000000000128 0.0
2.39142666666628 0.9901833333333492 0.0
2.404133333332872 0.9896666666666856 0.0
2.416839999999636 0.9891500000000149 0.0
2.429546666666227 0.9886333333333513 0.0
2.44225333333282 0.9881166666666876 0.0
2.454959999999585 0.987600000000017 0.0
2.46766666666635 0.9870833333333463 0.0
2.480373333332941 0.9865666666666828 0.0
2.493079999999706 0.9860500000000121 0.0
2.50578666666647 0.9855333333333415 0.0
2.518493333333235 0.9850166666666709 0.0
2.816053124999987 0.8552218750000049 0.0
2.828106249999975 0.8507437500000096 0.0
2.840159374999962 0.8462656250000143 0.0
2.852212499999873 0.8417875000000473 0.0
2.86426562499986 0.8373093750000521 0.0
2.876318749999847 0.8328312500000569 0.0
2.888371874999835 0.8283531250000615 0.0
2.900424999999822 0.8238750000000663 0.0
2.912478124999809 0.819396875000071 0.0
2.924531249999796 0.8149187500000757 0.0
2.936584374999784 0.8104406250000804 0.0
2.948637499999619 0.8059625000001418 0.0
2.960690624999454 0.8014843750002032 0.0
2.972743749999441 0.7970062500002079 0.0
2.984796874999442 0.7925281250002073 0.0
2.996849999999444 0.7880500000002068 0.0
3.008903124999445 0.7835718750002063 0.0
3.020956249999446 0.7790937500002058 0.0
3.033009374999601 0.7746156250001486 0.0
3.045062499999602 0.770137500000148 0.0
3.057115624999603 0.7656593750001475 0.0
3.069168749999757 0.7611812500000904 0.0
3.081221874999759 0.7567031250000898 0.0
3.09327499999976 0.7522250000000893 0.0
3.105328124999762 0.7477468750000887 0.0
3.117381249999763 0.7432687500000883 0.0
3.129434374999841 0.7387906250000594 0.0
3.141487499999766 0.7343125000000872 0.0
3.153540624999843 0.7298343750000583 0.0
3.165593749999845 0.7253562500000579 0.0
3.177646874999999 0.7208781250000007 0.0
3.490833333333202 0.6325433333333591 0.0
3.503266666666524 0.6300866666666947 0.0
3.515699999999767 0.6276300000000459 0.0
3.528133333332961 0.6251733333334066 0.0
3.540566666666333 0.6227166666667325 0.0
3.552999999999703 0.6202600000000587 0.0
3.565433333333063 0.6178033333333868 0.0
3.57786666666642 0.6153466666667153 0.0
3.59029999999978 0.6128900000000435 0.0
3.602733333332983 0.6104333333334026 0.0
3.615166666666354 0.6079766666667283 0.0
3.627599999999699 0.6055200000000595 0.0
3.640033333332914 0.6030633333334161 0.0
3.652466666666111 0.6006066666667764 0.0
3.664899999999474 0.5981500000001039 0.0
3.677333333332851 0.5956933333334286 0.0
3.689766666666218 0.5932366666667553 0.0
3.702199999999583 0.5907800000000822 0.0
3.714633333332945 0.5883233333334101 0.0
3.727066666666316 0.5858666666667359 0.0
3.739499999999686 0.583410000000062 0.0
3.751933333333054 0.5809533333333885 0.0
3.764366666666428 0.5784966666667138 0.0
3.776799999999796 0.5760400000000403 0.0
3.789233333333166 0.5735833333333664 0.0
3.801666666666538 0.5711266666666922 0.0
3.814099999999899 0.5686700000000201 0.0
3.826533333333265 0.566213333333347 0.0
3.838966666666628 0.5637566666666743 0.0
4.161872413793013 0.5250793103448326 0.0
4.17454482758606 0.5243586206896634 0.0
4.187217241379347 0.5236379310344805 0.0
4.199889655172115 0.5229172413793273 0.0
4.212562068965404 0.5221965517241443 0.0
4.225234482758259 0.521475862068986 0.0
4.237906896551461 0.520755172413808 0.0
4.250579310344285 0.5200344827586515 0.0
4.263251724137522 0.5193137931034715 0.0
4.275924137930659 0.5185931034482972 0.0
4.288596551723577 0.5178724137931353 0.0
4.301268965516688 0.5171517241379625 0.0
4.313941379309633 0.516431034482799 0.0
4.32661379310292 0.5157103448276162 0.0
4.339286206895901 0.5149896551724509 0.0
4.351958620689325 0.5142689655172601 0.0
4.364631034482272 0.5135482758620966 0.0
4.377303448275383 0.5128275862069238 0.0
4.389975862068303 0.5121068965517619 0.0
4.40264827586144 0.5113862068965875 0.0
4.415320689654676 0.5106655172414076 0.0
4.427993103447863 0.5099448275862304 0.0
4.440665517241394 0.5092241379310337 0.0
4.453337931034248 0.5085034482758755 0.0
4.46601034482754 0.5077827586206923 0.0
4.478682758620308 0.5070620689655391 0.0
4.491355172413595 0.5063413793103563 0.0
4.504027586206642 0.505620689655187 0.0
4.829341379310435 0.5003000000000002 0.0
4.841982758620696 0.5003000000000002 0.0
4.854624137930957 0.5003000000000002 0.0
4.867265517241218 0.5003000000000002 0.0
4.879906896551479 0.5003000000000002 0.0
4.89254827586174 0.5003000000000002 0.0
4.905189655172001 0.5003000000000002 0.0
4.917831034482262 0.5003000000000002 0.0
4.930472413792524 0.5003000000000002 0.0
4.943113793102785 0.5003000000000002 0.0
4.955755172413046 0.5003000000000002 0.0
4.968396551723474 0.5003000000000002 0.0
4.981037931033915 0.5003000000000002 0.0
4.993679310344175 0.5003000000000002 0.0
5.006320689654784 0.5003000000000002 0.0
5.018962068965044 0.5003000000000002 0.0
5.031603448275486 0.5003000000000002 0.0
5.044244827585914 0.5003000000000002 0.0
5.056886206896175 0.5003000000000002 0.0
5.069527586206783 0.5003000000000002 0.0
5.082168965517044 0.5003000000000002 0.0
5.094810344827496 0.5003000000000002 0.0
5.107451724137913 0.5003000000000002 0.0
5.120093103448174 0.5003000000000002 0.0
5.132734482758782 0.5003000000000002 0.0
5.145375862069043 0.5003000000000002 0.0
5.158017241379304 0.5003000000000002 0.0
5.170658620689565 0.5003000000000002 0.0
5.495972413793012 0.5056206896551674 0.0
5.50864482758606 0.5063413793103365 0.0
5.521317241379347 0.5070620689655194 0.0
5.533989655172114 0.5077827586206727 0.0
5.546662068965404 0.5085034482758557 0.0
5.559334482758258 0.509224137931014 0.0
5.572006896551461 0.509944827586192 0.0
5.584679310344284 0.5106655172413485 0.0
5.597351724137521 0.5113862068965285 0.0
5.610024137930658 0.5121068965517027 0.0
5.622696551723577 0.5128275862068646 0.0
5.635368965516688 0.5135482758620374 0.0
5.648041379309633 0.5142689655172009 0.0
5.66071379310292 0.5149896551723837 0.0
5.6733862068959 0.5157103448275491 0.0
5.686058620689325 0.5164310344827399 0.0
5.698731034482272 0.5171517241379033 0.0
5.711403448275383 0.5178724137930761 0.0
5.724075862068302 0.5185931034482381 0.0
5.736748275861439 0.5193137931034124 0.0
5.749420689654675 0.5200344827585923 0.0
5.762093103447863 0.5207551724137696 0.0
5.774765517241393 0.5214758620689662 0.0
5.787437931034248 0.5221965517241245 0.0
5.800110344827539 0.5229172413793076 0.0
5.812782758620307 0.5236379310344609 0.0
5.825455172413594 0.5243586206896437 0.0
5.838127586206642 0.5250793103448129 0.0
6.161033333333213 0.5637566666666429 0.0
6.173466666666591 0.5662133333333185 0.0
6.185899999999967 0.5686699999999937 0.0
6.198333333333339 0.571126666666668 0.0
6.210766666666722 0.5735833333333443 0.0
6.223200000000103 0.5760400000000204 0.0
6.235633333333163 0.578496666666633 0.0
6.248066666666509 0.5809533333333021 0.0
6.26049999999988 0.5834099999999762 0.0
6.272933333332928 0.5858666666665864 0.0
[...]
POINT_DATA 10175
SCALARS psi double
LOOKUP_TABLE default
1.000000188089182
1.000000188089182
1.000000188089182
1.000000188089182
1.000000188089182
1.000000188089182
1.000000188089182
1.000000188089182
1.000000188089182
1.000000188089182
1.000000188089182
1.000000188089182
1.000000188089182
1.000000188089182
1.000000188089182
1.000000188089182
1.000000188089182
1.000000188089182
1.000000188089182
1.000000188089182
1.000000188089182
1.000000188089182
1.000000188089182
1.000000188089182
1.000000188089182
1.000000188089182
1.000000188089182
1.000000188089182
1.000000188089182
1.000000188089182
1.000000188089182
1.000000188089182
0.0
0.0
1.000000188089182
1.000000188089182
1.000000188089182
1.000000188089182
1.000000188089182
1.000000188089182
1.000000188089182
1.000000188089182
1.000000188089182
1.000000188089182
1.000000188089182
1.000000188089182
1.000000188089182
1.000000188089182
1.000000188089182
1.000000188089182
1.000000188089182
1.000000188089182
1.000000188089182
1.000000188089182
1.000000188089182
1.000000188089182
1.000000188089182
1.000000188089182
1.000000188089182
1.000000188089182
1.000000188089182
1.000000188089182
1.000000188089182
1.000000188089182
1.000000188089182
1.000000188089182
1.000000188089182
1.000000188089182
1.000000188089182
1.000000188089182
1.000000188089182
1.000000188089182
1.000000188089182
1.000000188089182
1.000000188089182
1.000000188089182
1.000000188089182
1.000000188089182
1.000000188089182
1.000000188089182
1.000000188089182
1.000000188089182
1.000000188089182
1.000000188089182
1.000000188089182
1.000000188089182
1.000000188089182
1.000000188089182
1.000000188089182
1.000000188089182
1.000000188089182
1.000000188089182
1.000000188089182
1.000000188089182
1.000000188089182
1.000000188089182
1.000000188089182
1.000000188089182
1.000000188089182
1.000000188089182
1.000000188089182
1.000000188089182
1.000000188089182
1.000000188089182
1.000000188089182
1.000000188089182
1.000000188089182
1.000000188089182
1.000000188089182
1.000000188089182
1.000000188089182
1.000000188089182
1.000000188089182
1.000000188089182
1.000000188089182
1.000000188089182
1.000000188089182
1.000000188089182
1.000000188089182
1.000000188089182
1.000000188089182
1.000000188089182
1.000000188089182
1.000000188089182
1.000000188089182
1.000000188089182
1.000000188089182
1.000000188089182
1.000000188089182
1.000000188089182
1.000000188089182
1.000000188089182
1.000000188089182
1.000000188089182
1.000000188089182
1.000000188089182
1.000000188089182
1.000000188089182
1.000000188089182
1.000000188089182
1.000000188089182
1.000000188089182
1.000000188089182
1.000000188089182
1.000000188089182
1.000000188089182
1.000000188089182
1.000000188089182
1.000000188089182
1.000000188089182
1.000000188089182
1.000000188089182
1.000000188089182
1.000000188089182
1.000000188089182
1.000000188089182
1.000000188089182
1.000000188089182
1.000000188089182
1.000000188089182
1.000000188089182
1.000000188089182
1.000000188089182
1.000000188089182
1.000000188089182
1.000000188089182
1.000000188089182
1.000000188089182
1.000000188089182
1.000000188089182
1.000000188089182
1.000000188089182
1.000000188089182
1.000000188089182
1.000000188089182
1.000000188089182
1.000000188089182
1.000000188089182
1.000000188089182
1.000000188089182
1.000000188089182
1.000000188089182
1.000000188089182
1.000000188089182
1.000000188089182
1.000000188089182
1.000000188089182
1.000000188089182
1.000000188089182
1.000000188089182
1.000000188089182
1.000000188089182
1.000000188089182
1.000000188089182
1.000000188089182
1.000000188089182
1.000000188089182
1.000000188089182
1.000000188089182
1.000000188089182
1.000000188089182
1.000000188089182
1.000000188089182
1.000000188089182
1.000000188089182
1.000000188089182
1.000000188089182
1.000000188089182
1.000000188089182
1.000000188089182
1.000000188089182
1.000000188089182
1.000000188089182
1.000000188089182
1.000000188089182
1.000000188089182
1.000000188089182
1.000000188089182
1.000000188089182
1.000000188089182
1.000000188089182
1.000000188089182
1.000000188089182
1.000000188089182
1.000000188089182
1.000000188089182
1.000000188089182
1.000000188089182
1.000000188089182
1.000000188089182
1.000000188089182
1.000000188089182
1.000000188089182
1.000000188089182
1.000000188089182
1.000000188089182
1.000000188089182
1.000000188089182
1.000000188089182
1.000000188089182
1.000000188089182
1.000000188089182
1.000000188089182
1.000000188089182
1.000000188089182
1.000000188089182
1.000000188089182
1.000000188089182
1.000000188089182
1.000000188089182
1.000000188089182
1.000000188089182
1.000000188089182
1.000000188089182
1.000000188089182
1.000000188089182
1.000000188089182
1.000000188089182
1.000000188089182
1.000000188089182
1.000000188089182
1.000000188089182
1.000000188089182
1.000000188089182
1.000000188089182
1.000000188089182
1.000000188089182
1.000000188089182
1.000000188089182
1.000000188089182
1.000000188089182
1.000000188089182
1.000000188089182
1.000000188089182
1.000000188089182
1.000000188089182
1.000000188089182
1.000000188089182
1.000000188089182
1.000000188089182
1.000000188089182
1.000000188089182
1.000000188089182
1.000000188089182
1.000000188089182
1.000000188089182
1.000000188089182
1.000000188089182
1.000000188089182
1.000000188089182
1.000000188089182
1.000000188089182
1.000000188089182
1.000000188089182
1.000000188089182
1.000000188089182
1.000000188089182
1.000000188089182
1.000000188089182
1.000000188089182
1.000000188089182
1.000000188089182
1.000000188089182
1.000000188089182
1.000000188089182
1.000000188089182
1.000000188089182
1.000000188089182
1.000000188089182
1.000000188089182
1.000000188089182
1.000000188089182
1.000000188089182
1.000000188089182
1.000000188089182
1.000000188089182
1.000000188089182
1.000000188089182
1.000000188089182
1.000000188089182
1.000000188089182
1.000000188089182
1.000000188089182
1.000000188089182
1.000000188089182
1.000000188089182
1.000000188089182
1.000000188089182
1.000000188089182
1.000000188089182
1.000000188089182
1.000000188089182
1.000000188089182
1.000000188089182
1.000000188089182
1.000000188089182
1.000000188089182
1.000000188089182
1.000000188089182
1.000000188089182
1.000000188089182
1.000000188089182
1.000000188089182
1.000000188089182
1.000000188089182
1.000000188089182
1.000000188089182
1.000000188089182
1.000000188089182
1.000000188089182
1.000000188089182
1.000000188089182
1.000000188089182
1.000000188089182
1.000000188089182
1.000000188089182
1.000000188089182
1.000000188089182
1.000000188089182
1.000000188089182
1.000000188089182
1.000000188089182
1.000000188089182
1.000000188089182
1.000000188089182
1.000000188089182
1.000000188089182
1.000000188089182
1.000000188089182
1.000000188089182
1.000000188089182
1.000000188089182
1.000000188089182
1.000000188089182
1.000000188089182
1.000000188089182
1.000000188089182
1.000000188089182
1.000000188089182
1.000000188089182
1.000000188089182
1.000000188089182
1.000000188089182
1.000000188089182
1.000000188089182
1.000000188089182
1.000000188089182
1.000000188089182
1.000000188089182
1.000000188089182
1.000000188089182
1.000000188089182
1.000000188089182
1.000000188089182
1.000000188089182
1.000000188089182
1.000000188089182
1.000000188089182
1.000000188089182
1.000000188089182
1.000000188089182
1.000000188089182
1.000000188089182
1.000000188089182
1.000000188089182
1.000000188089182
1.000000188089182
1.000000188089182
1.000000188089182
1.000000188089182
1.000000188089182
1.000000188089182
1.000000188089182
1.000000188089182
1.000000188089182
1.000000188089182
1.000000188089182
1.000000188089182
1.000000188089182
1.000000188089182
1.000000188089182
1.000000188089182
1.000000188089182
1.000000188089182
1.000000188089182
1.000000188089182
1.000000188089182
1.000000188089182
1.000000188089182
1.000000188089182
1.000000188089182
1.000000188089182
1.000000188089182
1.000000188089182
1.000000188089182
1.000000188089182
1.000000188089182
1.000000188089182
1.000000188089182
1.000000188089182
1.000000188089182
1.000000188089182
1.000000188089182
1.000000188089182
1.000000188089182
1.000000188089182
1.000000188089182
1.000000188089182
1.000000188089182
1.000000188089182
1.000000188089182
1.000000188089182
1.000000188089182
1.000000188089182
1.000000188089182
1.000000188089182
1.000000188089182
1.000000188089182
1.000000188089182
1.000000188089182
1.000000188089182
1.000000188089182
1.000000188089182
1.000000188089182
1.000000188089182
1.000000188089182
1.000000188089182
1.000000188089182
1.000000188089182
1.000000188089182
1.000000188089182
1.000000188089182
1.000000188089182
1.000000188089182
1.000000188089182
1.000000188089182
1.000000188089182
1.000000188089182
1.000000188089182
1.000000188089182
1.000000188089182
1.000000188089182
1.000000188089182
1.000000188089182
1.000000188089182
1.000000188089182
1.000000188089182
1.000000188089182
1.000000188089182
1.000000188089182
1.000000188089182
1.000000188089182
1.000000188089182
1.000000188089182
1.000000188089182
1.000000188089182
1.000000188089182
1.000000188089182
1.000000188089182
1.000000188089182
1.000000188089182
1.000000188089182
1.000000188089182
1.000000188089182
1.000000188089182
1.000000188089182
1.000000188089182
1.000000188089182
1.000000188089182
1.000000188089182
1.000000188089182
1.000000188089182
1.000000188089182
1.000000188089182
1.000000188089182
1.000000188089182
1.000000188089182
1.000000188089182
1.000000188089182
1.000000188089182
1.000000188089182
1.000000188089182
1.000000188089182
1.000000188089182
1.000000188089182
1.000000188089182
1.000000188089182
1.000000188089182
1.000000188089182
1.000000188089182
1.000000188089182
1.000000188089182
1.000000188089182
1.000000188089182
1.000000188089182
1.000000188089182
1.000000188089182
1.000000188089182
1.000000188089182
1.000000188089182
1.000000188089182
1.000000188089182
1.000000188089182
1.000000188089182
1.000000188089182
1.000000188089182
1.000000188089182
1.000000188089182
1.000000188089182
1.000000188089182
1.000000188089182
1.000000188089182
1.000000188089182
1.000000188089182
1.000000188089182
1.000000188089182
1.000000188089182
1.000000188089182
1.000000188089182
1.000000188089182
1.000000188089182
1.000000188089182
1.000000188089182
1.000000188089182
1.000000188089182
1.000000188089182
1.000000188089182
1.000000188089182
1.000000188089182
1.000000188089182
1.000000188089182
1.000000188089182
1.000000188089182
1.000000188089182
1.000000188089182
1.000000188089182
1.000000188089182
1.000000188089182
1.000000188089182
1.000000188089182
1.000000188089182
1.000000188089182
1.000000188089182
1.000000188089182
1.000000188089182
1.000000188089182
1.000000188089182
1.000000188089182
1.000000188089182
1.000000188089182
1.000000188089182
1.000000188089182
1.000000188089182
1.000000188089182
1.000000188089182
1.000000188089182
1.000000188089182
1.000000188089182
1.000000188089182
1.000000188089182
1.000000188089182
1.000000188089182
1.000000188089182
1.000000188089182
1.000000188089182
1.000000188089182
1.000000188089182
1.000000188089182
1.000000188089182
1.000000188089182
1.000000188089182
1.000000188089182
1.000000188089182
1.000000188089182
1.000000188089182
1.000000188089182
1.000000188089182
1.000000188089182
1.000000188089182
1.000000188089182
1.000000188089182
1.000000188089182
1.000000188089182
1.000000188089182
1.000000188089182
1.000000188089182
1.000000188089182
1.000000188089182
1.000000188089182
1.000000188089182
1.000000188089182
1.000000188089182
1.000000188089182
1.000000188089182
1.000000188089182
1.000000188089182
1.000000188089182
1.000000188089182
1.000000188089182
1.000000188089182
1.000000188089182
1.000000188089182
1.000000188089182
1.000000188089182
1.000000188089182
1.000000188089182
1.000000188089182
1.000000188089182
1.000000188089182
1.000000188089182
1.000000188089182
1.000000188089182
1.000000188089182
1.000000188089182
1.000000188089182
1.000000188089182
1.000000188089182
1.000000188089182
1.000000188089182
1.000000188089182
1.000000188089182
1.000000188089182
1.000000188089182
1.000000188089182
1.000000188089182
1.000000188089182
1.000000188089182
1.000000188089182
1.000000188089182
1.000000188089182
1.000000188089182
1.000000188089182
1.000000188089182
1.000000188089182
1.000000188089182
1.000000188089182
1.000000188089182
1.000000188089182
1.000000188089182
1.000000188089182
1.000000188089182
1.000000188089182
1.000000188089182
1.000000188089182
1.000000188089182
1.000000188089182
1.000000188089182
1.000000188089182
1.000000188089182
1.000000188089182
1.000000188089182
1.000000188089182
1.000000188089182
1.000000188089182
1.000000188089182
1.000000188089182
1.000000188089182
1.000000188089182
1.000000188089182
1.000000188089182
1.000000188089182
1.000000188089182
1.000000188089182
1.000000188089182
1.000000188089182
1.000000188089182
1.000000188089182
1.000000188089182
1.000000188089182
1.000000188089182
1.000000188089182
1.000000188089182
1.000000188089182
1.000000188089182
1.000000188089182
1.000000188089182
1.000000188089182
1.000000188089182
1.000000188089182
1.000000188089182
1.000000188089182
1.000000188089182
1.000000188089182
1.000000188089182
1.000000188089182
1.000000188089182
1.000000188089182
1.000000188089182
1.000000188089182
1.000000188089182
1.000000188089182
1.000000188089182
1.000000188089182
1.000000188089182
1.000000188089182
1.000000188089182
1.000000188089182
1.000000188089182
1.000000188089182
1.000000188089182
1.000000188089182
1.000000188089182
1.000000188089182
1.000000188089182
1.000000188089182
1.000000188089182
1.000000188089182
1.000000188089182
1.000000188089182
1.000000188089182
1.000000188089182
1.000000188089182
1.000000188089182
1.000000188089182
1.000000188089182
1.000000188089182
1.000000188089182
1.000000188089182
1.000000188089182
1.000000188089182
1.000000188089182
1.000000188089182
1.000000188089182
1.000000188089182
1.000000188089182
1.000000188089182
1.000000188089182
1.000000188089182
1.000000188089182
1.000000188089182
1.000000188089182
1.000000188089182
1.000000188089182
1.000000188089182
1.000000188089182
1.000000188089182
1.000000188089182
1.000000188089182
1.000000188089182
1.000000188089182
1.000000188089182
1.000000188089182
1.000000188089182
1.000000188089182
1.000000188089182
1.000000188089182
1.000000188089182
1.000000188089182
1.000000188089182
1.000000188089182
1.000000188089182
1.000000188089182
1.000000188089182
1.000000188089182
1.000000188089182
1.000000188089182
1.000000188089182
1.000000188089182
1.000000188089182
1.000000188089182
1.000000188089182
1.000000188089182
1.000000188089182
1.000000188089182
1.000000188089182
1.000000188089182
1.000000188089182
1.000000188089182
1.000000188089182
1.000000188089182
1.000000188089182
1.000000188089182
1.000000188089182
1.000000188089182
1.000000188089182
1.000000188089182
1.000000188089182
1.000000188089182
1.000000188089182
1.000000188089182
1.000000188089182
1.000000188089182
1.000000188089182
1.000000188089182
1.000000188089182
1.000000188089182
1.000000188089182
1.000000188089182
1.000000188089182
1.000000188089182
1.000000188089182
1.000000188089182
1.000000188089182
1.000000188089182
1.000000188089182
1.000000188089182
1.000000188089182
1.000000188089182
1.000000188089182
1.000000188089182
1.000000188089182
1.000000188089182
1.000000188089182
1.000000188089182
1.000000188089182
1.000000188089182
1.000000188089182
1.000000188089182
0.0
0.0
0.0
0.0
0.0
0.0
0.0
0.0
0.0
0.0
0.0
0.0
0.0
0.0
0.0
0.0
0.0
0.0
0.0
0.0
0.0
0.0
0.0
0.0
0.0
0.0
0.0
0.0
0.0
0.0
0.0
0.0
0.0
0.0
0.0
0.0
0.0
0.0
0.0
0.0
0.0
0.0
0.0
0.0
0.0
0.0
0.0
0.0
0.0
0.0
0.0
0.0
0.0
0.0
0.0
0.0
0.0
0.0
0.0
0.0
0.0
0.0
0.0
0.0
0.0
0.0
0.0
0.0
0.0
0.0
0.0
0.0
0.0
0.0
0.0
0.0
0.0
0.0
0.0
0.0
0.0
0.0
0.0
0.0
0.0
0.0
0.0
0.0
0.0
0.0
0.0
0.0
0.0
0.0
0.0
0.0
0.0
0.0
0.0
0.0
0.0
0.0
0.0
0.0
0.0
0.0
0.0
0.0
0.0
0.0
0.0
0.0
0.0
0.0
0.0
0.0
0.0
0.0
0.0
0.0
0.0
0.0
0.0
0.0
0.11515705397636379
0.22894860928897107
0.3400091672739919
0.4469732292677839
0.5484752966066058
0.6431498706267136
0.7296314526645946
0.8065545440564216
0.8725536461381757
0.9262632602460946
0.96631788771641
0.9913520298853621
0.25273706910809407
0.45403777445094695
0.61190586903348
0.7337004564039099
0.8259944314181585
0.8945514850139965
0.9443550740131962
0.9795468830345008
1.0035247933471763
1.0190487729810067
1.0282795467950372
1.032853946696291
1.034090373396323
1.0330841689618204
1.03064250735125
1.027301438700187
1.0235515420622203
1.0197190175148503
1.016085277539715
1.0127186500226244
1.0096570461013612
1.0069775613901601
1.0046937770772528
1.0028834357893852
1.0015517327115846
1.0006605036847196
1.0001575084077718
1.0000983069066707
1.0001144716585564
1.0001313193517982
1.0001194326067009
1.000115823990026
1.0001286934707936
1.0001146492640332
1.000171116722453
1.0001218560753247
1.00017615529879
1.0001268778246681
0.9994430625144638
0.9997298679244206
1.0001483569477116
1.0001697252755282
1.0001397362883828
0.9986413676607336
1.0001317592719243
0.9995199868936017
0.9997363579460493
1.0001441356933851
1.0001277320364168
0.9998117512804028
1.0001052940764545
0.9997023648354709
0.9999114208902647
1.000246035181933
1.0001208898255154
0.9976985676525665
0.9999214478352313
1.0001149185037692
1.0001400539687806
0.9997296694057558
0.9998234078937279
1.0001054345043536
1.000081238283156
1.0001331634201844
1.0001356112713324
1.0001221107062446
1.0002242129681518
1.0001306149229783
1.000006369761217
1.000043670907287
1.0001622788052376
0.999275499422384
1.000159003196187
0.9997691550232795
1.0000377737469137
0.9993646486245141
0.9992033326645018
0.9998752353231283
1.000073204545447
0.9995067908469278
0.9998345049219692
1.0000946144305443
0.9998354646259892
1.000155160570652
0.9924103340637839
1.000116288655289
0.9997561851237007
1.0002133928027142
1.0000227335869596
1.0002240875467843
1.0000601527756312
0.9993198662626626
1.0001970361356394
1.000201430619789
0.9994892650649346
1.0338147836423772
1.0000058467195512
1.00003097836339
1.000176557683776
0.9991887500046246
1.0000118669291507
1.0001558752127206
1.0000178586582793
1.0000393795045566
1.0000750047744194
0.9994245590816924
1.0002002810690949
1.0000555245769849
1.0001194097612145
0.9995304841258021
0.9976830906716562
1.0001137329701997
0.9998891783158056
0.9999470853493925
1.0000658007023469
1.0001511678580273
0.9992184774748604
0.9999771114889583
0.9955374143485378
0.999830558323249
0.9994340360155785
0.9988745293771721
0.9997748959734069
0.9978267263611078
0.9996553781025104
0.9983459591359075
0.9993201842841873
1.0002081382176444
0.9997042474227851
0.9975220109252819
0.9999476275508072
0.9984409435123719
0.9998342530460835
0.999770779804057
0.9980140057734147
0.9985105034091457
0.9982495112097733
0.9960054889606331
0.9992220806985341
0.9961013832424721
0.9959769670979038
0.9985853170071465
0.9977471160033105
0.9987975001163593
0.996409026883006
1.0000111223933048
1.0000528586119564
0.9985764728067402
0.9966224939167231
0.9977915088104145
0.9960055123007993
0.9957357910582249
0.9971960132420349
0.9986045040071562
0.9981035812569568
0.9974128582289294
0.9994186313753408
1.000158186642736
1.0250343553604613
1.0001418770737842
1.0001273806284685
1.0001913780467417
0.999992371473759
1.000108578851899
1.000113881807905
1.000121996156788
1.0001337923682492
1.0001409262710506
1.0001315075458297
1.0001327568039595
1.0001509086554772
1.0001325250630189
1.0001352378781303
1.000103746211011
1.0002125586710757
1.0000205943072527
1.0002059705608328
0.23983873953792953
0.212953437915185
0.25410254745124544
0.1076030607572127
0.9998385676064984
1.0000705300064399
0.999956805434416
1.0000569659030052
1.0001152316688675
0.9969868154310778
0.11130870774602417
0.2149249000487821
0.9998995893159515
0.1050312198078375
0.24810721000904762
0.9999012328706416
1.0001292588673074
0.10445217407605097
0.23150197832845387
0.10687052145916158
0.1328657624554977
0.22327238058912105
0.6769714086522748
0.11175499932838394
0.23680349470647
0.9999997997986191
1.0002213514160165
1.000069452454642
0.09937805195556554
1.0000081518012416
1.0000090599920515
1.000222944050451
0.9998585463770882
1.0000247240551272