# vtk DataFile Version 1.0
2D Simulation C++
ASCII
DATASET UNSTRUCTURED_GRID
FIELD FieldData 5
TIME 1 3 double
0.002 1.0 6.997999999999451
ITERATION 1 1 int
3500
NODES 1 3 int
39686 10175 19337
PARAMETERS 1 5 float
54.5 1 1.0 10 1.0
PRPOPERTIES 1 8 float
1.0 1.0 1.0 1.0 1.0 1.0 1.0 1.0

POINTS 10175 double
0.0 1.0 0.0
1.85 1.0 0.0
2.15 1.0 0.0
2.5312 0.9845000000000002 0.0
2.804 0.8597000000000001 0.0
3.1897 0.7164000000000001 0.0
3.4784 0.6349999999999998 0.0
3.8514 0.5613000000000001 0.0
4.1492 0.5257999999999998 0.0
4.5167 0.5049000000000001 0.0
4.8167 0.5003000000000002 0.0
5.1833 0.5003000000000002 0.0
5.4833 0.5049000000000001 0.0
5.8508 0.5257999999999998 0.0
6.1486 0.5613000000000001 0.0
6.5216 0.6349999999999998 0.0
6.8103 0.7164000000000001 0.0
7.196 0.8597000000000001 0.0
7.4688 0.9845000000000002 0.0
7.85 1.0 0.0
8.15 1.0 0.0
10.0 1.0 0.0
2.0 0.8500000000000001 0.0
2.604294 0.7837869999999998 0.0
3.292593 0.5288279999999999 0.0
3.982247 0.3922810000000001 0.0
4.6644 0.3515969999999999 0.0
5.3356 0.3515969999999999 0.0
6.017753 0.3922810000000001 0.0
6.707407 0.5288279999999999 0.0
7.395706 0.7837869999999998 0.0
8.0 0.8500000000000001 0.0
0.0 0.0 0.0
10.0 0.0 0.0
0.07731723845774514 1.0 0.0
0.1519282425751394 1.0 0.0
0.2239277400896997 1.0 0.0
0.2934071239369679 1.0 0.0
0.3604546223708701 1.0 0.0
0.4251553247841627 1.0 0.0
0.4875913972919827 1.0 0.0
0.5478421134772972 1.0 0.0
0.6059839281172508 1.0 0.0
0.6620906976051055 1.0 0.0
0.7162336193950094 1.0 0.0
0.7684814453906067 1.0 0.0
0.8189005244790737 1.0 0.0
0.8675548394544116 1.0 0.0
0.9145061677623462 1.0 0.0
0.9598141211100796 1.0 0.0
1.003536214761839 1.0 0.0
1.045727959146647 1.0 0.0
1.086442924069015 1.0 0.0
1.125732791591312 1.0 0.0
1.163647444571104 1.0 0.0
1.200235020960043 1.0 0.0
1.235541970819574 1.0 0.0
1.269613116910643 1.0 0.0
1.302491705471632 1.0 0.0
1.334219497916676 1.0 0.0
1.364836752924407 1.0 0.0
1.394382355140304 1.0 0.0
1.422893812497032 1.0 0.0
1.450407316429008 1.0 0.0
1.476957806370816 1.0 0.0
1.50257897422722 1.0 0.0
1.527303369409766 1.0 0.0
1.551162359595906 1.0 0.0
1.574186245352309 1.0 0.0
1.596404256506202 1.0 0.0
1.617844598421058 1.0 0.0
1.638534488929847 1.0 0.0
1.658500200670047 1.0 0.0
1.677767074338693 1.0 0.0
1.696359576263456 1.0 0.0
1.714301309096868 1.0 0.0
1.731615048754634 1.0 0.0
1.748322778497226 1.0 0.0
1.764445709370288 1.0 0.0
1.780004311175954 1.0 0.0
1.79501833376898 1.0 0.0
1.809506836528369 1.0 0.0
1.823488220410919 1.0 0.0
1.836980229748437 1.0 0.0
2.162706666666592 0.9994833333333364 0.0
2.175413333333357 0.9989666666666657 0.0
2.188119999999948 0.9984500000000022 0.0
2.200826666666539 0.9979333333333386 0.0
2.213533333333304 0.9974166666666678 0.0
2.226239999999896 0.9969000000000042 0.0
2.238946666666487 0.9963833333333406 0.0
2.25165333333308 0.995866666666677 0.0
2.264359999999672 0.9953500000000134 0.0
2.277066666666436 0.9948333333333428 0.0
2.289773333333028 0.9943166666666792 0.0
2.302479999999619 0.9938000000000156 0.0
2.31518666666621 0.993283333333352 0.0
2.327893333332802 0.9927666666666883 0.0
2.340599999999568 0.9922500000000176 0.0
2.353306666666333 0.991733333333347 0.0
2.366013333332925 0.9912166666666834 0.0
2.378719999999689 0.9907000000000128 0.0
2.39142666666628 0.9901833333333492 0.0
2.404133333332872 0.9896666666666856 0.0
2.416839999999636 0.9891500000000149 0.0
2.429546666666227 0.9886333333333513 0.0
2.44225333333282 0.9881166666666876 0.0
2.454959999999585 0.987600000000017 0.0
2.46766666666635 0.9870833333333463 0.0
2.480373333332941 0.9865666666666828 0.0
2.493079999999706 0.9860500000000121 0.0
2.50578666666647 0.9855333333333415 0.0
2.518493333333235 0.9850166666666709 0.0
2.816053124999987 0.8552218750000049 0.0
2.828106249999975 0.8507437500000096 0.0
2.840159374999962 0.8462656250000143 0.0
2.852212499999873 0.8417875000000473 0.0
2.86426562499986 0.8373093750000521 0.0
2.876318749999847 0.8328312500000569 0.0
2.888371874999835 0.8283531250000615 0.0
2.900424999999822 0.8238750000000663 0.0
2.912478124999809 0.819396875000071 0.0
2.924531249999796 0.8149187500000757 0.0
2.936584374999784 0.8104406250000804 0.0
2.948637499999619 0.8059625000001418 0.0
2.960690624999454 0.8014843750002032 0.0
2.972743749999441 0.7970062500002079 0.0
2.984796874999442 0.7925281250002073 0.0
2.996849999999444 0.7880500000002068 0.0
3.008903124999445 0.7835718750002063 0.0
3.020956249999446 0.7790937500002058 0.0
3.033009374999601 0.7746156250001486 0.0
3.045062499999602 0.770137500000148 0.0
3.057115624999603 0.7656593750001475 0.0
3.069168749999757 0.7611812500000904 0.0
3.081221874999759 0.7567031250000898 0.0
3.09327499999976 0.7522250000000893 0.0
3.105328124999762 0.7477468750000887 0.0
3.117381249999763 0.7432687500000883 0.0
3.129434374999841 0.7387906250000594 0.0
3.141487499999766 0.7343125000000872 0.0
3.153540624999843 0.7298343750000583 0.0
3.165593749999845 0.7253562500000579 0.0
3.177646874999999 0.7208781250000007 0.0
3.490833333333202 0.6325433333333591 0.0
3.503266666666524 0.6300866666666947 0.0
3.515699999999767 0.6276300000000459 0.0
3.528133333332961 0.6251733333334066 0.0
3.540566666666333 0.6227166666667325 0.0
3.552999999999703 0.6202600000000587 0.0
3.565433333333063 0.6178033333333868 0.0
3.57786666666642 0.6153466666667153 0.0
3.59029999999978 0.6128900000000435 0.0
3.602733333332983 0.6104333333334026 0.0
3.615166666666354 0.6079766666667283 0.0
3.627599999999699 0.6055200000000595 0.0
3.640033333332914 0.6030633333334161 0.0
3.652466666666111 0.6006066666667764 0.0
3.664899999999474 0.5981500000001039 0.0
3.677333333332851 0.5956933333334286 0.0
3.689766666666218 0.5932366666667553 0.0
3.702199999999583 0.5907800000000822 0.0
3.714633333332945 0.5883233333334101 0.0
3.727066666666316 0.5858666666667359 0.0
3.739499999999686 0.583410000000062 0.0
3.751933333333054 0.5809533333333885 0.0
3.764366666666428 0.5784966666667138 0.0
3.776799999999796 0.5760400000000403 0.0
3.789233333333166 0.5735833333333664 0.0
3.801666666666538 0.5711266666666922 0.0
3.814099999999899 0.5686700000000201 0.0
3.826533333333265 0.566213333333347 0.0
3.838966666666628 0.5637566666666743 0.0
4.161872413793013 0.5250793103448326 0.0
4.17454482758606 0.5243586206896634 0.0
4.187217241379347 0.5236379310344805 0.0
4.199889655172115 0.5229172413793273 0.0
4.212562068965404 0.5221965517241443 0.0
4.225234482758259 0.521475862068986 0.0
4.237906896551461 0.520755172413808 0.0
4.250579310344285 0.5200344827586515 0.0
4.263251724137522 0.5193137931034715 0.0
4.275924137930659 0.5185931034482972 0.0
4.288596551723577 0.5178724137931353 0.0
4.301268965516688 0.5171517241379625 0.0
4.313941379309633 0.516431034482799 0.0
4.32661379310292 0.5157103448276162 0.0
4.339286206895901 0.5149896551724509 0.0
4.351958620689325 0.5142689655172601 0.0
4.364631034482272 0.5135482758620966 0.0
4.377303448275383 0.5128275862069238 0.0
4.389975862068303 0.5121068965517619 0.0
4.40264827586144 0.5113862068965875 0.0
4.415320689654676 0.5106655172414076 0.0
4.427993103447863 0.5099448275862304 0.0
4.440665517241394 0.5092241379310337 0.0
4.453337931034248 0.5085034482758755 0.0
4.46601034482754 0.5077827586206923 0.0
4.478682758620308 0.5070620689655391 0.0
4.491355172413595 0.5063413793103563 0.0
4.504027586206642 0.505620689655187 0.0
4.829341379310435 0.5003000000000002 0.0
4.841982758620696 0.5003000000000002 0.0
4.854624137930957 0.5003000000000002 0.0
4.867265517241218 0.5003000000000002 0.0
4.879906896551479 0.5003000000000002 0.0
4.89254827586174 0.5003000000000002 0.0
4.905189655172001 0.5003000000000002 0.0
4.917831034482262 0.5003000000000002 0.0
4.930472413792524 0.5003000000000002 0.0
4.943113793102785 0.5003000000000002 0.0
4.955755172413046 0.5003000000000002 0.0
4.968396551723474 0.5003000000000002 0.0
4.981037931033915 0.5003000000000002 0.0
4.993679310344175 0.5003000000000002 0.0
5.006320689654784 0.5003000000000002 0.0
5.018962068965044 0.5003000000000002 0.0
5.031603448275486 0.5003000000000002 0.0
5.044244827585914 0.5003000000000002 0.0
5.056886206896175 0.5003000000000002 0.0
5.069527586206783 0.5003000000000002 0.0
5.082168965517044 0.5003000000000002 0.0
5.094810344827496 0.5003000000000002 0.0
5.107451724137913 0.5003000000000002 0.0
5.120093103448174 0.5003000000000002 0.0
5.132734482758782 0.5003000000000002 0.0
5.145375862069043 0.5003000000000002 0.0
5.158017241379304 0.5003000000000002 0.0
5.170658620689565 0.5003000000000002 0.0
5.495972413793012 0.5056206896551674 0.0
5.50864482758606 0.5063413793103365 0.0
5.521317241379347 0.5070620689655194 0.0
5.533989655172114 0.5077827586206727 0.0
5.546662068965404 0.5085034482758557 0.0
5.559334482758258 0.509224137931014 0.0
5.572006896551461 0.509944827586192 0.0
5.584679310344284 0.5106655172413485 0.0
5.597351724137521 0.5113862068965285 0.0
5.610024137930658 0.5121068965517027 0.0
5.622696551723577 0.5128275862068646 0.0
5.635368965516688 0.5135482758620374 0.0
5.648041379309633 0.5142689655172009 0.0
5.66071379310292 0.5149896551723837 0.0
5.6733862068959 0.5157103448275491 0.0
5.686058620689325 0.5164310344827399 0.0
5.698731034482272 0.5171517241379033 0.0
5.711403448275383 0.5178724137930761 0.0
5.724075862068302 0.5185931034482381 0.0
5.736748275861439 0.5193137931034124 0.0
5.749420689654675 0.5200344827585923 0.0
5.762093103447863 0.5207551724137696 0.0
5.774765517241393 0.5214758620689662 0.0
5.787437931034248 0.5221965517241245 0.0
5.800110344827539 0.5229172413793076 0.0
5.812782758620307 0.5236379310344609 0.0
5.825455172413594 0.5243586206896437 0.0
5.838127586206642 0.5250793103448129 0.0
6.161033333333213 0.5637566666666429 0.0
6.173466666666591 0.5662133333333185 0.0
6.185899999999967 0.5686699999999937 0.0
6.198333333333339 0.571126666666668 0.0
6.210766666666722 0.5735833333333443 0.0
6.223200000000103 0.5760400000000204 0.0
6.235633333333163 0.578496666666633 0.0
6.248066666666509 0.5809533333333021 0.0
6.26049999999988 0.5834099999999762 0.0
6.272933333332928 0.5858666666665864 0.0
[...]
POINT_DATA 10175
SCALARS psi double
LOOKUP_TABLE default
1.0000001880878644
1.0000001880878644
1.0000001880878644
1.0000001880878644
1.0000001880878644
1.0000001880878644
1.0000001880878644
1.0000001880878644
1.0000001880878644
1.0000001880878644
1.0000001880878644
1.0000001880878644
1.0000001880878644
1.0000001880878644
1.0000001880878644
1.0000001880878644
1.0000001880878644
1.0000001880878644
1.0000001880878644
1.0000001880878644
1.0000001880878644
1.0000001880878644
1.0000001880878644
1.0000001880878644
1.0000001880878644
1.0000001880878644
1.0000001880878644
1.0000001880878644
1.0000001880878644
1.0000001880878644
1.0000001880878644
1.0000001880878644
0.0
0.0
1.0000001880878644
1.0000001880878644
1.0000001880878644
1.0000001880878644
1.0000001880878644
1.0000001880878644
1.0000001880878644
1.0000001880878644
1.0000001880878644
1.0000001880878644
1.0000001880878644
1.0000001880878644
1.0000001880878644
1.0000001880878644
1.0000001880878644
1.0000001880878644
1.0000001880878644
1.0000001880878644
1.0000001880878644
1.0000001880878644
1.0000001880878644
1.0000001880878644
1.0000001880878644
1.0000001880878644
1.0000001880878644
1.0000001880878644
1.0000001880878644
1.0000001880878644
1.0000001880878644
1.0000001880878644
1.0000001880878644
1.0000001880878644
1.0000001880878644
1.0000001880878644
1.0000001880878644
1.0000001880878644
1.0000001880878644
1.0000001880878644
1.0000001880878644
1.0000001880878644
1.0000001880878644
1.0000001880878644
1.0000001880878644
1.0000001880878644
1.0000001880878644
1.0000001880878644
1.0000001880878644
1.0000001880878644
1.0000001880878644
1.0000001880878644
1.0000001880878644
1.0000001880878644
1.0000001880878644
1.0000001880878644
1.0000001880878644
1.0000001880878644
1.0000001880878644
1.0000001880878644
1.0000001880878644
1.0000001880878644
1.0000001880878644
1.0000001880878644
1.0000001880878644
1.0000001880878644
1.0000001880878644
1.0000001880878644
1.0000001880878644
1.0000001880878644
1.0000001880878644
1.0000001880878644
1.0000001880878644
1.0000001880878644
1.0000001880878644
1.0000001880878644
1.0000001880878644
1.0000001880878644
1.0000001880878644
1.0000001880878644
1.0000001880878644
1.0000001880878644
1.0000001880878644
1.0000001880878644
1.0000001880878644
1.0000001880878644
1.0000001880878644
1.0000001880878644
1.0000001880878644
1.0000001880878644
1.0000001880878644
1.0000001880878644
1.0000001880878644
1.0000001880878644
1.0000001880878644
1.0000001880878644
1.0000001880878644
1.0000001880878644
1.0000001880878644
1.0000001880878644
1.0000001880878644
1.0000001880878644
1.0000001880878644
1.0000001880878644
1.0000001880878644
1.0000001880878644
1.0000001880878644
1.0000001880878644
1.0000001880878644
1.0000001880878644
1.0000001880878644
1.0000001880878644
1.0000001880878644
1.0000001880878644
1.0000001880878644
1.0000001880878644
1.0000001880878644
1.0000001880878644
1.0000001880878644
1.0000001880878644
1.0000001880878644
1.0000001880878644
1.0000001880878644
1.0000001880878644
1.0000001880878644
1.0000001880878644
1.0000001880878644
1.0000001880878644
1.0000001880878644
1.0000001880878644
1.0000001880878644
1.0000001880878644
1.0000001880878644
1.0000001880878644
1.0000001880878644
1.0000001880878644
1.0000001880878644
1.0000001880878644
1.0000001880878644
1.0000001880878644
1.0000001880878644
1.0000001880878644
1.0000001880878644
1.0000001880878644
1.0000001880878644
1.0000001880878644
1.0000001880878644
1.0000001880878644
1.0000001880878644
1.0000001880878644
1.0000001880878644
1.0000001880878644
1.0000001880878644
1.0000001880878644
1.0000001880878644
1.0000001880878644
1.0000001880878644
1.0000001880878644
1.0000001880878644
1.0000001880878644
1.0000001880878644
1.0000001880878644
1.0000001880878644
1.0000001880878644
1.0000001880878644
1.0000001880878644
1.0000001880878644
1.0000001880878644
1.0000001880878644
1.0000001880878644
1.0000001880878644
1.0000001880878644
1.0000001880878644
1.0000001880878644
1.0000001880878644
1.0000001880878644
1.0000001880878644
1.0000001880878644
1.0000001880878644
1.0000001880878644
1.0000001880878644
1.0000001880878644
1.0000001880878644
1.0000001880878644
1.0000001880878644
1.0000001880878644
1.0000001880878644
1.0000001880878644
1.0000001880878644
1.0000001880878644
1.0000001880878644
1.0000001880878644
1.0000001880878644
1.0000001880878644
1.0000001880878644
1.0000001880878644
1.0000001880878644
1.0000001880878644
1.0000001880878644
1.0000001880878644
1.0000001880878644
1.0000001880878644
1.0000001880878644
1.0000001880878644
1.0000001880878644
1.0000001880878644
1.0000001880878644
1.0000001880878644
1.0000001880878644
1.0000001880878644
1.0000001880878644
1.0000001880878644
1.0000001880878644
1.0000001880878644
1.0000001880878644
1.0000001880878644
1.0000001880878644
1.0000001880878644
1.0000001880878644
1.0000001880878644
1.0000001880878644
1.0000001880878644
1.0000001880878644
1.0000001880878644
1.0000001880878644
1.0000001880878644
1.0000001880878644
1.0000001880878644
1.0000001880878644
1.0000001880878644
1.0000001880878644
1.0000001880878644
1.0000001880878644
1.0000001880878644
1.0000001880878644
1.0000001880878644
1.0000001880878644
1.0000001880878644
1.0000001880878644
1.0000001880878644
1.0000001880878644
1.0000001880878644
1.0000001880878644
1.0000001880878644
1.0000001880878644
1.0000001880878644
1.0000001880878644
1.0000001880878644
1.0000001880878644
1.0000001880878644
1.0000001880878644
1.0000001880878644
1.0000001880878644
1.0000001880878644
1.0000001880878644
1.0000001880878644
1.0000001880878644
1.0000001880878644
1.0000001880878644
1.0000001880878644
1.0000001880878644
1.0000001880878644
1.0000001880878644
1.0000001880878644
1.0000001880878644
1.0000001880878644
1.0000001880878644
1.0000001880878644
1.0000001880878644
1.0000001880878644
1.0000001880878644
1.0000001880878644
1.0000001880878644
1.0000001880878644
1.0000001880878644
1.0000001880878644
1.0000001880878644
1.0000001880878644
1.0000001880878644
1.0000001880878644
1.0000001880878644
1.0000001880878644
1.0000001880878644
1.0000001880878644
1.0000001880878644
1.0000001880878644
1.0000001880878644
1.0000001880878644
1.0000001880878644
1.0000001880878644
1.0000001880878644
1.0000001880878644
1.0000001880878644
1.0000001880878644
1.0000001880878644
1.0000001880878644
1.0000001880878644
1.0000001880878644
1.0000001880878644
1.0000001880878644
1.0000001880878644
1.0000001880878644
1.0000001880878644
1.0000001880878644
1.0000001880878644
1.0000001880878644
1.0000001880878644
1.0000001880878644
1.0000001880878644
1.0000001880878644
1.0000001880878644
1.0000001880878644
1.0000001880878644
1.0000001880878644
1.0000001880878644
1.0000001880878644
1.0000001880878644
1.0000001880878644
1.0000001880878644
1.0000001880878644
1.0000001880878644
1.0000001880878644
1.0000001880878644
1.0000001880878644
1.0000001880878644
1.0000001880878644
1.0000001880878644
1.0000001880878644
1.0000001880878644
1.0000001880878644
1.0000001880878644
1.0000001880878644
1.0000001880878644
1.0000001880878644
1.0000001880878644
1.0000001880878644
1.0000001880878644
1.0000001880878644
1.0000001880878644
1.0000001880878644
1.0000001880878644
1.0000001880878644
1.0000001880878644
1.0000001880878644
1.0000001880878644
1.0000001880878644
1.0000001880878644
1.0000001880878644
1.0000001880878644
1.0000001880878644
1.0000001880878644
1.0000001880878644
1.0000001880878644
1.0000001880878644
1.0000001880878644
1.0000001880878644
1.0000001880878644
1.0000001880878644
1.0000001880878644
1.0000001880878644
1.0000001880878644
1.0000001880878644
1.0000001880878644
1.0000001880878644
1.0000001880878644
1.0000001880878644
1.0000001880878644
1.0000001880878644
1.0000001880878644
1.0000001880878644
1.0000001880878644
1.0000001880878644
1.0000001880878644
1.0000001880878644
1.0000001880878644
1.0000001880878644
1.0000001880878644
1.0000001880878644
1.0000001880878644
1.0000001880878644
1.0000001880878644
1.0000001880878644
1.0000001880878644
1.0000001880878644
1.0000001880878644
1.0000001880878644
1.0000001880878644
1.0000001880878644
1.0000001880878644
1.0000001880878644
1.0000001880878644
1.0000001880878644
1.0000001880878644
1.0000001880878644
1.0000001880878644
1.0000001880878644
1.0000001880878644
1.0000001880878644
1.0000001880878644
1.0000001880878644
1.0000001880878644
1.0000001880878644
1.0000001880878644
1.0000001880878644
1.0000001880878644
1.0000001880878644
1.0000001880878644
1.0000001880878644
1.0000001880878644
1.0000001880878644
1.0000001880878644
1.0000001880878644
1.0000001880878644
1.0000001880878644
1.0000001880878644
1.0000001880878644
1.0000001880878644
1.0000001880878644
1.0000001880878644
1.0000001880878644
1.0000001880878644
1.0000001880878644
1.0000001880878644
1.0000001880878644
1.0000001880878644
1.0000001880878644
1.0000001880878644
1.0000001880878644
1.0000001880878644
1.0000001880878644
1.0000001880878644
1.0000001880878644
1.0000001880878644
1.0000001880878644
1.0000001880878644
1.0000001880878644
1.0000001880878644
1.0000001880878644
1.0000001880878644
1.0000001880878644
1.0000001880878644
1.0000001880878644
1.0000001880878644
1.0000001880878644
1.0000001880878644
1.0000001880878644
1.0000001880878644
1.0000001880878644
1.0000001880878644
1.0000001880878644
1.0000001880878644
1.0000001880878644
1.0000001880878644
1.0000001880878644
1.0000001880878644
1.0000001880878644
1.0000001880878644
1.0000001880878644
1.0000001880878644
1.0000001880878644
1.0000001880878644
1.0000001880878644
1.0000001880878644
1.0000001880878644
1.0000001880878644
1.0000001880878644
1.0000001880878644
1.0000001880878644
1.0000001880878644
1.0000001880878644
1.0000001880878644
1.0000001880878644
1.0000001880878644
1.0000001880878644
1.0000001880878644
1.0000001880878644
1.0000001880878644
1.0000001880878644
1.0000001880878644
1.0000001880878644
1.0000001880878644
1.0000001880878644
1.0000001880878644
1.0000001880878644
1.0000001880878644
1.0000001880878644
1.0000001880878644
1.0000001880878644
1.0000001880878644
1.0000001880878644
1.0000001880878644
1.0000001880878644
1.0000001880878644
1.0000001880878644
1.0000001880878644
1.0000001880878644
1.0000001880878644
1.0000001880878644
1.0000001880878644
1.0000001880878644
1.0000001880878644
1.0000001880878644
1.0000001880878644
1.0000001880878644
1.0000001880878644
1.0000001880878644
1.0000001880878644
1.0000001880878644
1.0000001880878644
1.0000001880878644
1.0000001880878644
1.0000001880878644
1.0000001880878644
1.0000001880878644
1.0000001880878644
1.0000001880878644
1.0000001880878644
1.0000001880878644
1.0000001880878644
1.0000001880878644
1.0000001880878644
1.0000001880878644
1.0000001880878644
1.0000001880878644
1.0000001880878644
1.0000001880878644
1.0000001880878644
1.0000001880878644
1.0000001880878644
1.0000001880878644
1.0000001880878644
1.0000001880878644
1.0000001880878644
1.0000001880878644
1.0000001880878644
1.0000001880878644
1.0000001880878644
1.0000001880878644
1.0000001880878644
1.0000001880878644
1.0000001880878644
1.0000001880878644
1.0000001880878644
1.0000001880878644
1.0000001880878644
1.0000001880878644
1.0000001880878644
1.0000001880878644
1.0000001880878644
1.0000001880878644
1.0000001880878644
1.0000001880878644
1.0000001880878644
1.0000001880878644
1.0000001880878644
1.0000001880878644
1.0000001880878644
1.0000001880878644
1.0000001880878644
1.0000001880878644
1.0000001880878644
1.0000001880878644
1.0000001880878644
1.0000001880878644
1.0000001880878644
1.0000001880878644
1.0000001880878644
1.0000001880878644
1.0000001880878644
1.0000001880878644
1.0000001880878644
1.0000001880878644
1.0000001880878644
1.0000001880878644
1.0000001880878644
1.0000001880878644
1.0000001880878644
1.0000001880878644
1.0000001880878644
1.0000001880878644
1.0000001880878644
1.0000001880878644
1.0000001880878644
1.0000001880878644
1.0000001880878644
1.0000001880878644
1.0000001880878644
1.0000001880878644
1.0000001880878644
1.0000001880878644
1.0000001880878644
1.0000001880878644
1.0000001880878644
1.0000001880878644
1.0000001880878644
1.0000001880878644
1.0000001880878644
1.0000001880878644
1.0000001880878644
1.0000001880878644
1.0000001880878644
1.0000001880878644
1.0000001880878644
1.0000001880878644
1.0000001880878644
1.0000001880878644
1.0000001880878644
1.0000001880878644
1.0000001880878644
1.0000001880878644
1.0000001880878644
1.0000001880878644
1.0000001880878644
1.0000001880878644
1.0000001880878644
1.0000001880878644
1.0000001880878644
1.0000001880878644
1.0000001880878644
1.0000001880878644
1.0000001880878644
1.0000001880878644
1.0000001880878644
1.0000001880878644
1.0000001880878644
1.0000001880878644
1.0000001880878644
1.0000001880878644
1.0000001880878644
1.0000001880878644
1.0000001880878644
1.0000001880878644
1.0000001880878644
1.0000001880878644
1.0000001880878644
1.0000001880878644
1.0000001880878644
1.0000001880878644
1.0000001880878644
1.0000001880878644
1.0000001880878644
1.0000001880878644
1.0000001880878644
1.0000001880878644
1.0000001880878644
1.0000001880878644
1.0000001880878644
1.0000001880878644
1.0000001880878644
1.0000001880878644
1.0000001880878644
1.0000001880878644
1.0000001880878644
1.0000001880878644
1.0000001880878644
1.0000001880878644
1.0000001880878644
1.0000001880878644
1.0000001880878644
1.0000001880878644
1.0000001880878644
1.0000001880878644
1.0000001880878644
1.0000001880878644
1.0000001880878644
1.0000001880878644
1.0000001880878644
1.0000001880878644
1.0000001880878644
1.0000001880878644
1.0000001880878644
1.0000001880878644
1.0000001880878644
1.0000001880878644
1.0000001880878644
1.0000001880878644
1.0000001880878644
1.0000001880878644
1.0000001880878644
1.0000001880878644
1.0000001880878644
1.0000001880878644
1.0000001880878644
1.0000001880878644
1.0000001880878644
1.0000001880878644
1.0000001880878644
1.0000001880878644
1.0000001880878644
1.0000001880878644
1.0000001880878644
1.0000001880878644
1.0000001880878644
1.0000001880878644
1.0000001880878644
1.0000001880878644
1.0000001880878644
1.0000001880878644
1.0000001880878644
1.0000001880878644
1.0000001880878644
1.0000001880878644
1.0000001880878644
1.0000001880878644
1.0000001880878644
1.0000001880878644
1.0000001880878644
1.0000001880878644
1.0000001880878644
1.0000001880878644
1.0000001880878644
1.0000001880878644
1.0000001880878644
1.0000001880878644
1.0000001880878644
1.0000001880878644
1.0000001880878644
1.0000001880878644
1.0000001880878644
1.0000001880878644
1.0000001880878644
1.0000001880878644
1.0000001880878644
1.0000001880878644
1.0000001880878644
1.0000001880878644
1.0000001880878644
1.0000001880878644
1.0000001880878644
1.0000001880878644
1.0000001880878644
1.0000001880878644
1.0000001880878644
1.0000001880878644
1.0000001880878644
1.0000001880878644
1.0000001880878644
1.0000001880878644
1.0000001880878644
1.0000001880878644
1.0000001880878644
1.0000001880878644
1.0000001880878644
1.0000001880878644
1.0000001880878644
1.0000001880878644
1.0000001880878644
1.0000001880878644
1.0000001880878644
1.0000001880878644
1.0000001880878644
1.0000001880878644
1.0000001880878644
1.0000001880878644
1.0000001880878644
1.0000001880878644
1.0000001880878644
1.0000001880878644
1.0000001880878644
1.0000001880878644
1.0000001880878644
1.0000001880878644
1.0000001880878644
1.0000001880878644
1.0000001880878644
1.0000001880878644
1.0000001880878644
1.0000001880878644
1.0000001880878644
1.0000001880878644
1.0000001880878644
1.0000001880878644
1.0000001880878644
1.0000001880878644
1.0000001880878644
1.0000001880878644
1.0000001880878644
1.0000001880878644
1.0000001880878644
1.0000001880878644
1.0000001880878644
1.0000001880878644
1.0000001880878644
1.0000001880878644
1.0000001880878644
1.0000001880878644
1.0000001880878644
1.0000001880878644
1.0000001880878644
1.0000001880878644
1.0000001880878644
1.0000001880878644
1.0000001880878644
1.0000001880878644
1.0000001880878644
1.0000001880878644
1.0000001880878644
1.0000001880878644
1.0000001880878644
1.0000001880878644
1.0000001880878644
1.0000001880878644
1.0000001880878644
1.0000001880878644
1.0000001880878644
1.0000001880878644
1.0000001880878644
1.0000001880878644
1.0000001880878644
1.0000001880878644
1.0000001880878644
1.0000001880878644
1.0000001880878644
1.0000001880878644
1.0000001880878644
1.0000001880878644
0.0
0.0
0.0
0.0
0.0
0.0
0.0
0.0
0.0
0.0
0.0
0.0
0.0
0.0
0.0
0.0
0.0
0.0
0.0
0.0
0.0
0.0
0.0
0.0
0.0
0.0
0.0
0.0
0.0
0.0
0.0
0.0
0.0
0.0
0.0
0.0
0.0
0.0
0.0
0.0
0.0
0.0
0.0
0.0
0.0
0.0
0.0
0.0
0.0
0.0
0.0
0.0
0.0
0.0
0.0
0.0
0.0
0.0
0.0
0.0
0.0
0.0
0.0
0.0
0.0
0.0
0.0
0.0
0.0
0.0
0.0
0.0
0.0
0.0
0.0
0.0
0.0
0.0
0.0
0.0
0.0
0.0
0.0
0.0
0.0
0.0
0.0
0.0
0.0
0.0
0.0
0.0
0.0
0.0
0.0
0.0
0.0
0.0
0.0
0.0
0.0
0.0
0.0
0.0
0.0
0.0
0.0
0.0
0.0
0.0
0.0
0.0
0.0
0.0
0.0
0.0
0.0
0.0
0.0
0.0
0.0
0.0
0.0
0.0
0.115157053976212
0.22894860928866917
0.3400091672735437
0.4469732292671949
0.5484752966058827
0.6431498706258667
0.7296314526636333
0.8065545440553565
0.8725536461370258
0.9262632602448729
0.9663178877151376
0.9913520298840554
0.2527361609710948
0.45404098592355324
0.6119177540012523
0.7337249456701954
0.8260343703456775
0.8946081069142441
0.9444275843234988
0.979632546708764
1.003619498213742
1.0191477355840777
1.0283780512570324
1.0329479611143284
1.0341768317465811
1.0331610603778385
1.030708797240346
1.0273569188439826
1.0235966420675044
1.0197545863404316
1.01611248451989
1.0127387599205648
1.0096713346351434
1.006987241568454
1.0046999434823942
1.0028870322944556
1.0015535604667185
1.0006612279462697
1.0001576639922807
1.0000983067000828
1.0001144654226732
1.0001313057513685
1.0001194136715348
1.0001158033291977
1.000128665748618
1.0001146237792173
1.0001710818354712
1.0001218363750144
1.0001761442408554
1.0001268850603686
0.9994430618820572
0.9997298674869609
1.000148363153076
1.0001697494639628
1.0001397553820721
0.9986413670087122
1.0001317323832128
0.9995199863399848
0.99973635751925
1.000144127095865
1.0001277573452363
0.9998117508263001
1.0001052833051725
0.9997023642937969
0.9999114204590456
1.0002460074319692
1.0001208762630838
0.9976985677103205
0.9999214487112841
1.0001149290240408
1.0001400039799404
0.9997296696881409
0.999823406249931
1.0001054413226793
1.000081240617188
1.0001332096928666
1.000135678349681
1.0001221099894724
1.0002241994535688
1.0001306026547538
1.0000063697223067
1.0000436728887394
1.0001622371561805
0.9992754913403226
1.0001589902920078
0.999769128029973
1.0000377734885488
0.9993646490846444
0.9992033330052739
0.9998752341571397
1.0000731977830841
0.9995067564148797
0.999834503382682
1.000094602795217
0.9998354642351436
1.0001551478246262
0.9925004222353488
1.0001163635729036
0.9997561854655237
1.0002133860149547
1.0000227335519853
1.0002240742186466
1.0000601560463385
0.9993198664437333
1.0001970714636785
1.0002014672209616
0.9994892642902204
1.0339051927256762
1.0000058466781205
1.000030979406242
1.0001765617083218
0.9991887499142262
1.0000118665743665
1.0001558546042582
1.000017858988659
1.000039379709001
1.0000750116168142
0.9994245594504125
1.000200276686821
1.0000554951558511
1.000119392232222
0.9995304797043219
0.9976830913529834
1.0001137244464495
0.9998891773759527
0.9999470854191611
1.0000658054162026
1.000151287451909
0.9992184772208629
0.9999770631503228
0.9955374156475372
0.9998305371789538
0.9994340358877452
0.9988744715291231
0.9997748948564902
0.9978267225417458
0.9996553619521458
0.9983458989201044
0.9993201842612537
1.0002081781925911
0.9997042447861233
0.9975220115829898
0.9999475912422712
0.9984409432981106
0.9998341996835352
0.9997707199490473
0.9980140062351436
0.9985105042486313
0.998249446095981
0.9960054896551916
0.9992220421124024
0.9961013840690967
0.9959769680892874
0.9985852648096571
0.9977470403180575
0.9987974788312983
0.9964090207318839
1.0000111235091724
1.0000528625919738
0.9985764527281632
0.9966224055297026
0.9977914776834261
0.996005435821892
0.9957357796306471
0.9971959927200232
0.9986045038902194
0.9981035811306419
0.9974128586313268
0.9994186314713742
1.0001581790896155
1.0250832542534143
1.0001418772100645
1.000127370532293
1.0001913761443286
0.9999923717988204
1.0001085753743721
1.0001138742593607
1.00012197707374