# vtk DataFile Version 2.0
2D Simulation Python
ASCII
DATASET UNSTRUCTURED_GRID
FIELD FieldData 1
NODES 1 2 int
3798 7382

POINTS 3798 double
0.0 0.0 0.0
1.0 0.0 0.0
1.0 1.0 0.0
0.0 1.0 0.0
0.01886792452826637 0.0 0.0
0.03773584905653053 0.0 0.0
0.05660377358479097 0.0 0.0
0.07547169811305962 0.0 0.0
0.09433962264133271 0.0 0.0
0.1132075471696058 0.0 0.0
0.1320754716978688 0.0 0.0
0.1509433962261159 0.0 0.0
0.1698113207543628 0.0 0.0
0.1886792452826097 0.0 0.0
0.2075471698108566 0.0 0.0
0.2264150943391035 0.0 0.0
0.2452830188673504 0.0 0.0
0.2641509433955972 0.0 0.0
0.2830188679238441 0.0 0.0
0.301886792452091 0.0 0.0
0.3207547169803379 0.0 0.0
0.3396226415085848 0.0 0.0
0.3584905660368317 0.0 0.0
0.3773584905650785 0.0 0.0
0.3962264150933255 0.0 0.0
0.4150943396215723 0.0 0.0
0.4339622641498192 0.0 0.0
0.4528301886780661 0.0 0.0
0.4716981132063129 0.0 0.0
0.4905660377345599 0.0 0.0
0.5094339622628591 0.0 0.0
0.5283018867912108 0.0 0.0
0.5471698113195625 0.0 0.0
0.5660377358479143 0.0 0.0
0.5849056603762659 0.0 0.0
0.6037735849046176 0.0 0.0
0.6226415094329693 0.0 0.0
0.6415094339613208 0.0 0.0
0.6603773584896723 0.0 0.0
0.6792452830180238 0.0 0.0
0.6981132075463754 0.0 0.0
0.7169811320747269 0.0 0.0
0.7358490566030784 0.0 0.0
0.7547169811314299 0.0 0.0
0.7735849056597816 0.0 0.0
0.7924528301881331 0.0 0.0
0.8113207547164847 0.0 0.0
0.8301886792448361 0.0 0.0
0.8490566037731877 0.0 0.0
0.8679245283015392 0.0 0.0
0.8867924528298908 0.0 0.0
0.9056603773582425 0.0 0.0
0.9245283018865939 0.0 0.0
0.9433962264149454 0.0 0.0
0.962264150943297 0.0 0.0
0.9811320754716486 0.0 0.0
1.0 0.01886792452826637 0.0
1.0 0.03773584905653053 0.0
1.0 0.05660377358479097 0.0
1.0 0.07547169811305962 0.0
1.0 0.09433962264133271 0.0
1.0 0.1132075471696058 0.0
1.0 0.1320754716978688 0.0
1.0 0.1509433962261159 0.0
1.0 0.1698113207543628 0.0
1.0 0.1886792452826097 0.0
1.0 0.2075471698108566 0.0
1.0 0.2264150943391035 0.0
1.0 0.2452830188673504 0.0
1.0 0.2641509433955972 0.0
1.0 0.2830188679238441 0.0
1.0 0.301886792452091 0.0
1.0 0.3207547169803379 0.0
1.0 0.3396226415085848 0.0
1.0 0.3584905660368317 0.0
1.0 0.3773584905650785 0.0
1.0 0.3962264150933255 0.0
1.0 0.4150943396215723 0.0
1.0 0.4339622641498192 0.0
1.0 0.4528301886780661 0.0
1.0 0.4716981132063129 0.0
1.0 0.4905660377345599 0.0
1.0 0.5094339622628591 0.0
1.0 0.5283018867912108 0.0
1.0 0.5471698113195625 0.0
1.0 0.5660377358479143 0.0
1.0 0.5849056603762659 0.0
1.0 0.6037735849046176 0.0
1.0 0.6226415094329693 0.0
1.0 0.6415094339613208 0.0
1.0 0.6603773584896723 0.0
1.0 0.6792452830180238 0.0
1.0 0.6981132075463754 0.0
1.0 0.7169811320747269 0.0
1.0 0.7358490566030784 0.0
1.0 0.7547169811314299 0.0
1.0 0.7735849056597816 0.0
1.0 0.7924528301881331 0.0
1.0 0.8113207547164847 0.0
1.0 0.8301886792448361 0.0
1.0 0.8490566037731877 0.0
1.0 0.8679245283015392 0.0
1.0 0.8867924528298908 0.0
1.0 0.9056603773582425 0.0
1.0 0.9245283018865939 0.0
1.0 0.9433962264149454 0.0
1.0 0.962264150943297 0.0
1.0 0.9811320754716486 0.0
0.9811320754716195 1.0 0.0
0.9622641509432391 1.0 0.0
0.9433962264148587 1.0 0.0
0.9245283018864782 1.0 0.0
0.9056603773580978 1.0 0.0
0.8867924528297173 1.0 0.0
0.8679245283014174 1.0 0.0
0.8490566037732444 1.0 0.0
0.8301886792450734 1.0 0.0
0.8113207547169025 1.0 0.0
0.7924528301887315 1.0 0.0
0.7735849056605606 1.0 0.0
0.7547169811323896 1.0 0.0
0.7358490566042186 1.0 0.0
0.7169811320760476 1.0 0.0
0.6981132075478766 1.0 0.0
0.6792452830197057 1.0 0.0
0.6603773584915346 1.0 0.0
0.6415094339633636 1.0 0.0
0.6226415094351925 1.0 0.0
0.6037735849070215 1.0 0.0
0.5849056603788504 1.0 0.0
0.5660377358506794 1.0 0.0
0.5471698113225083 1.0 0.0
0.5283018867943372 1.0 0.0
0.5094339622661662 1.0 0.0
0.4905660377378905 1.0 0.0
0.4716981132095099 1.0 0.0
0.4528301886811295 1.0 0.0
0.4339622641527489 1.0 0.0
0.4150943396243684 1.0 0.0
0.3962264150959879 1.0 0.0
0.3773584905676074 1.0 0.0
0.358490566039227 1.0 0.0
0.3396226415108468 1.0 0.0
0.3207547169824663 1.0 0.0
0.3018867924540859 1.0 0.0
0.2830188679257056 1.0 0.0
0.2641509433973251 1.0 0.0
0.2452830188689448 1.0 0.0
0.2264150943405645 1.0 0.0
0.2075471698121841 1.0 0.0
0.1886792452838036 1.0 0.0
0.1698113207554234 1.0 0.0
0.150943396227043 1.0 0.0
0.1320754716986625 1.0 0.0
0.1132075471702823 1.0 0.0
0.09433962264190188 1.0 0.0
0.0754716981135215 1.0 0.0
0.05660377358514113 1.0 0.0
0.03773584905676075 1.0 0.0
0.01886792452838049 1.0 0.0
0.0 0.9811320754716195 0.0
0.0 0.9622641509432391 0.0
0.0 0.9433962264148587 0.0
0.0 0.9245283018864782 0.0
0.0 0.9056603773580978 0.0
0.0 0.8867924528297173 0.0
0.0 0.8679245283014174 0.0
0.0 0.8490566037732444 0.0
0.0 0.8301886792450734 0.0
0.0 0.8113207547169025 0.0
0.0 0.7924528301887315 0.0
0.0 0.7735849056605606 0.0
0.0 0.7547169811323896 0.0
0.0 0.7358490566042186 0.0
0.0 0.7169811320760476 0.0
0.0 0.6981132075478766 0.0
0.0 0.6792452830197057 0.0
0.0 0.6603773584915346 0.0
0.0 0.6415094339633636 0.0
0.0 0.6226415094351925 0.0
0.0 0.6037735849070215 0.0
0.0 0.5849056603788504 0.0
0.0 0.5660377358506794 0.0
0.0 0.5471698113225083 0.0
0.0 0.5283018867943372 0.0
0.0 0.5094339622661662 0.0
0.0 0.4905660377378905 0.0
0.0 0.4716981132095099 0.0
0.0 0.4528301886811295 0.0
0.0 0.4339622641527489 0.0
0.0 0.4150943396243684 0.0
0.0 0.3962264150959879 0.0
0.0 0.3773584905676074 0.0
0.0 0.358490566039227 0.0
0.0 0.3396226415108468 0.0
0.0 0.3207547169824663 0.0
0.0 0.3018867924540859 0.0
0.0 0.2830188679257056 0.0
0.0 0.2641509433973251 0.0
0.0 0.2452830188689448 0.0
0.0 0.2264150943405645 0.0
0.0 0.2075471698121841 0.0
0.0 0.1886792452838036 0.0
0.0 0.1698113207554234 0.0
0.0 0.150943396227043 0.0
0.0 0.1320754716986625 0.0
0.0 0.1132075471702823 0.0
0.0 0.09433962264190188 0.0
0.0 0.0754716981135215 0.0
0.0 0.05660377358514113 0.0
0.0 0.03773584905676075 0.0
0.0 0.01886792452838049 0.0
0.49961422419268997 0.4984293794066726 0.0
0.7093511500970902 0.706792936500378 0.0
0.29287482782244045 0.7110496278611782 0.0
0.7065208514432915 0.2921137893028175 0.0
0.2917146567058879 0.2951459957249887 0.0
0.5010883512796402 0.783530677658598 0.0
0.2164159732426224 0.5012876322837192 0.0
0.7820505253934122 0.4994927647991782 0.0
0.4969563419356505 0.21663804071479492 0.0
0.8269192007901067 0.8287013252031155 0.0
0.1712682973217082 0.8268730922835856 0.0
0.8299941553097447 0.17180608262880254 0.0
0.17180615988223974 0.17000622072452293 0.0
0.5640959313975822 0.6420224840910225 0.0
0.36076803388570655 0.5671667288006801 0.0
0.641160245161879 0.4320186669377829 0.0
0.4354935082651592 0.36378759861759746 0.0
0.6410454186381067 0.8479832937118897 0.0
0.1518368310809157 0.6410829539811169 0.0
0.8477907051244511 0.3598243790179788 0.0
0.35938579904680457 0.15130729784326102 0.0
0.8497305928919907 0.6399401683101269 0.0
0.3617952267412937 0.8474454291453152 0.0
0.6436051449793575 0.15189469658234833 0.0
0.15079737625026685 0.3588783576988489 0.0
0.6832039587940572 0.5823618751624478 0.0
0.4454396775914624 0.6627381531764 0.0
0.33424594078221964 0.4385872006022409 0.0
0.5773189844856303 0.3195812160927133 0.0
0.5368082180804761 0.8869865896668006 0.0
0.11301341973883329 0.5368082072162796 0.0
0.8863497125425446 0.46278650800142523 0.0
0.46231798559604276 0.1137357048419064 0.0
0.735504344602733 0.8878298811845817 0.0
0.11217246241749894 0.7355045289688809 0.0
0.8876386118329569 0.26464529586215935 0.0
0.26447675721717134 0.11218714573944835 0.0
0.8918893682153743 0.7430319146751548 0.0
0.7378676821853629 0.10938784471235846 0.0
0.2618554236513495 0.8907466135047526 0.0
0.10927139946373736 0.2618885660485004 0.0
0.6036356850091371 0.740958324467786 0.0
0.2594197395873493 0.6024781400358834 0.0
0.7471835282093033 0.3970113006814754 0.0
0.39635295506120277 0.25856270415268773 0.0
0.5973835830959042 0.5282120591728078 0.0
0.5269880475515504 0.40324375384926064 0.0
0.900344051349824 0.09737126935472232 0.0
0.09737116846728401 0.09965601878423913 0.0
0.9027736024298996 0.9004379740924425 0.0
0.09965486244215357 0.9026299600545967 0.0
0.3830054844266893 0.7484876862569074 0.0
0.25074672726321157 0.3828059459383084 0.0
0.9036934196956306 0.5634343341860331 0.0
0.436167023944368 0.903809418557912 0.0
0.5634650142808684 0.09627038765249357 0.0
0.09611428176536896 0.43622888244072316 0.0
0.7383691909253696 0.7977530090605311 0.0
0.20213608094646243 0.7381864461382426 0.0
0.7965379729869333 0.25833485688790847 0.0
0.25825176979143294 0.20343822649683996 0.0
0.8016496201203362 0.7232057683389532 0.0
0.27776554876540255 0.7985644202275013 0.0
0.7230025466734626 0.19888476423555862 0.0
0.20134253349952064 0.2778412830843111 0.0
0.48914355287031674 0.5909586444150075 0.0
0.4113298235007088 0.49483643887222295 0.0
0.7553604068177817 0.6323161440656005 0.0
0.6323326401346647 0.2446343261447706 0.0
0.3558016573651024 0.6535168196958461 0.0
0.6947272998992697 0.49553252027219197 0.0
0.34695271761644664 0.35520182412877976 0.0
0.49374473330545476 0.3082796821038452 0.0
0.8187154539118972 0.9148861354006228 0.0
0.08511383208187207 0.8187154148724425 0.0
0.9150328940734902 0.18133025458140606 0.0
0.18128457425270267 0.0851129709589244 0.0
0.8187403987114168 0.08420346742597412 0.0
0.9157746719419576 0.8186373542270347 0.0
0.08420340483892619 0.18125955209024192 0.0
0.18126035834340148 0.9157847355643594 0.0
0.6491759294498078 0.6582605894876106 0.0
0.518075563238964 0.700155561243168 0.0
0.2994944160935228 0.5182519107636043 0.0
0.6529572976260253 0.35254842454839763 0.0
0.6097401473872117 0.9217208439447089 0.0
0.07827850601264716 0.6097398708442259 0.0
0.9217267277120186 0.3902548071573767 0.0
0.39024121399465406 0.07825838690395835 0.0
0.9257398577009572 0.6657069734842804 0.0
0.6657516430505073 0.07518432263878908 0.0
0.3341866530930919 0.9246109018771522 0.0
0.07542270790545244 0.3342243925275289 0.0
0.8225798016625723 0.5644120390192462 0.0
0.43501894509773303 0.8272239480204406 0.0
0.5644015723185061 0.17743228884395235 0.0
0.1728552698143025 0.4351788286843611 0.0
0.5668992511560398 0.812632221934239 0.0
[...]
POINT_DATA 3798
VECTORS vector double
0.0 0.0 0.0
0.0 0.0 0.0
0.0 0.0 0.0
0.0 0.0 0.0
0.0 0.0 0.0
0.0 0.0 0.0
0.0 0.0 0.0
0.0 0.0 0.0
0.0 0.0 0.0
0.0 0.0 0.0
0.0 0.0 0.0
0.0 0.0 0.0
0.0 0.0 0.0
0.0 0.0 0.0
0.0 0.0 0.0
0.0 0.0 0.0
0.0 0.0 0.0
0.0 0.0 0.0
0.0 0.0 0.0
0.0 0.0 0.0
0.0 0.0 0.0
0.0 0.0 0.0
0.0 0.0 0.0
0.0 0.0 0.0
0.0 0.0 0.0
0.0 0.0 0.0
0.0 0.0 0.0
0.0 0.0 0.0
0.0 0.0 0.0
0.0 0.0 0.0
0.0 0.0 0.0
0.0 0.0 0.0
0.0 0.0 0.0
0.0 0.0 0.0
0.0 0.0 0.0
0.0 0.0 0.0
0.0 0.0 0.0
0.0 0.0 0.0
0.0 0.0 0.0
0.0 0.0 0.0
0.0 0.0 0.0
0.0 0.0 0.0
0.0 0.0 0.0
0.0 0.0 0.0
0.0 0.0 0.0
0.0 0.0 0.0
0.0 0.0 0.0
0.0 0.0 0.0
0.0 0.0 0.0
0.0 0.0 0.0
0.0 0.0 0.0
0.0 0.0 0.0
0.0 0.0 0.0
0.0 0.0 0.0
0.0 0.0 0.0
0.0 0.0 0.0
0.0 0.0 0.0
0.0 0.0 0.0
0.0 0.0 0.0
0.0 0.0 0.0
0.0 0.0 0.0
0.0 0.0 0.0
0.0 0.0 0.0
0.0 0.0 0.0
0.0 0.0 0.0
0.0 0.0 0.0
0.0 0.0 0.0
0.0 0.0 0.0
0.0 0.0 0.0
0.0 0.0 0.0
0.0 0.0 0.0
0.0 0.0 0.0
0.0 0.0 0.0
0.0 0.0 0.0
0.0 0.0 0.0
0.0 0.0 0.0
0.0 0.0 0.0
0.0 0.0 0.0
0.0 0.0 0.0
0.0 0.0 0.0
0.0 0.0 0.0
0.0 0.0 0.0
0.0 0.0 0.0
0.0 0.0 0.0
0.0 0.0 0.0
0.0 0.0 0.0
0.0 0.0 0.0
0.0 0.0 0.0
0.0 0.0 0.0
0.0 0.0 0.0
0.0 0.0 0.0
0.0 0.0 0.0
0.0 0.0 0.0
0.0 0.0 0.0
0.0 0.0 0.0
0.0 0.0 0.0
0.0 0.0 0.0
0.0 0.0 0.0
0.0 0.0 0.0
0.0 0.0 0.0
0.0 0.0 0.0
0.0 0.0 0.0
0.0 0.0 0.0
0.0 0.0 0.0
0.0 0.0 0.0
0.0 0.0 0.0
0.0 0.0 0.0
0.0 0.0 0.0
1.0 0.0 0.0
1.0 0.0 0.0
1.0 0.0 0.0
1.0 0.0 0.0
1.0 0.0 0.0
1.0 0.0 0.0
1.0 0.0 0.0
1.0 0.0 0.0
1.0 0.0 0.0
1.0 0.0 0.0
1.0 0.0 0.0
1.0 0.0 0.0
1.0 0.0 0.0
1.0 0.0 0.0
1.0 0.0 0.0
1.0 0.0 0.0
1.0 0.0 0.0
1.0 0.0 0.0
1.0 0.0 0.0
1.0 0.0 0.0
1.0 0.0 0.0
1.0 0.0 0.0
1.0 0.0 0.0
1.0 0.0 0.0
1.0 0.0 0.0
1.0 0.0 0.0
1.0 0.0 0.0
1.0 0.0 0.0
1.0 0.0 0.0
1.0 0.0 0.0
1.0 0.0 0.0
1.0 0.0 0.0
1.0 0.0 0.0
1.0 0.0 0.0
1.0 0.0 0.0
1.0 0.0 0.0
1.0 0.0 0.0
1.0 0.0 0.0
1.0 0.0 0.0
1.0 0.0 0.0
1.0 0.0 0.0
1.0 0.0 0.0
1.0 0.0 0.0
1.0 0.0 0.0
1.0 0.0 0.0
1.0 0.0 0.0
1.0 0.0 0.0
1.0 0.0 0.0
1.0 0.0 0.0
1.0 0.0 0.0
1.0 0.0 0.0
1.0 0.0 0.0
0.0 0.0 0.0
0.0 0.0 0.0
0.0 0.0 0.0
0.0 0.0 0.0
0.0 0.0 0.0
0.0 0.0 0.0
0.0 0.0 0.0
0.0 0.0 0.0
0.0 0.0 0.0
0.0 0.0 0.0
0.0 0.0 0.0
0.0 0.0 0.0
0.0 0.0 0.0
0.0 0.0 0.0
0.0 0.0 0.0
0.0 0.0 0.0
0.0 0.0 0.0
0.0 0.0 0.0
0.0 0.0 0.0
0.0 0.0 0.0
0.0 0.0 0.0
0.0 0.0 0.0
0.0 0.0 0.0
0.0 0.0 0.0
0.0 0.0 0.0
0.0 0.0 0.0
0.0 0.0 0.0
0.0 0.0 0.0
0.0 0.0 0.0
0.0 0.0 0.0
0.0 0.0 0.0
0.0 0.0 0.0
0.0 0.0 0.0
0.0 0.0 0.0
0.0 0.0 0.0
0.0 0.0 0.0
0.0 0.0 0.0
0.0 0.0 0.0
0.0 0.0 0.0
0.0 0.0 0.0
0.0 0.0 0.0
0.0 0.0 0.0
0.0 0.0 0.0
0.0 0.0 0.0
0.0 0.0 0.0
0.0 0.0 0.0
0.0 0.0 0.0
0.0 0.0 0.0
0.0 0.0 0.0
0.0 0.0 0.0
0.0 0.0 0.0
0.0 0.0 0.0
-0.23360158306 0.0628518145945 0.0
-0.0713469099169 -0.0830524799226 0.0
-0.0455345041622 0.134092559907 0.0
0.000153455268279 -0.00206658348212 0.0
-0.0216626192819 -0.00143908583781 0.0
0.0785602075656 0.158911386912 0.0
-0.0402058732194 0.0402455157221 0.0
-0.224246063245 -0.134723728553 0.0
0.000514179456332 -0.010258490636 0.0
0.057860115236 -0.120706369368 0.0
-0.0324688731008 0.104553668127 0.0
0.00844076712074 0.00696082448672 0.0
-0.00548388496714 0.00159090780281 0.0
-0.18260416924 0.0954830027801 0.0
-0.128083425428 0.107937467932 0.0
-0.172842350481 -0.0339129085742 0.0
-0.0489814504347 -0.0118760025733 0.0
0.207145623317 0.0261370271724 0.0
-0.0274550674289 0.0787749007567 0.0
-0.00467303001835 0.0088093765063 0.0
-0.00373350258775 -0.00371798497569 0.0
-0.268589821938 -0.347642547691 0.0
0.0378732281636 0.11997474038 0.0
0.00965824159278 -0.00160012210903 0.0
-0.0148931962408 0.0168047176367 0.0
-0.318029829308 -0.0791441535467 0.0
-0.120996604447 0.203138338135 0.0
-0.0652223929125 0.013387118586 0.0
-0.0242988478238 -0.0132086930865 0.0
0.211828492803 0.0743399324898 0.0
-0.0168508723585 0.0494636364508 0.0
-0.0250976083952 -0.0164200275892 0.0
0.00237717975901 -0.00330040546439 0.0
0.230682507186 -0.0111983667506 0.0
-0.0178939279768 0.0937210782158 0.0
0.00531915641314 0.0144599575593 0.0
-0.00280714508257 -0.000973537950943 0.0
-0.157304111921 -0.423988108096 0.0
0.0119041989123 0.00183674756246 0.0
-0.0110833715203 0.0808244852562 0.0
-0.00514103715964 0.0064677285658 0.0
0.0147496133421 0.0495964472728 0.0
-0.0600482647953 0.0823287591407 0.0
-0.0612181289884 -0.0274954400987 0.0
-0.0132304755612 -0.01073685353 0.0
-0.330750533233 0.0187718828453 0.0
-0.117389166463 -0.00246205124549 0.0
0.00432039250867 0.00404625281552 0.0
-0.000209176592378 -0.000434092477261 0.0
0.114074606184 -0.215671682644 0.0
-0.0598158608634 0.121288517874 0.0
-0.0137734129207 0.188900902935 0.0
-0.0315279731131 0.0105817395181 0.0
-0.0924765556926 -0.128126092412 0.0
0.139514041998 0.0777400120038 0.0
0.00919108376937 -0.00191157566572 0.0
-0.0108919531627 0.0272678340052 0.0
0.0817535933974 -0.0718645748267 0.0
-0.03125348904 0.10366073353 0.0
0.00890668936223 0.00801185658649 0.0
-0.0104447969546 -0.000321297387065 0.0
-0.0851053081782 -0.180837854734 0.0
-0.0184259304838 0.118901163581 0.0
0.0111315218196 0.00203237060379 0.0
-0.0137573081524 0.00607688748438 0.0
-0.218871369871 0.151639771446 0.0
-0.147965950388 0.061585930658 0.0
-0.242174691901 -0.172974126808 0.0
0.0070846289932 -0.00573884669765 0.0
-0.0911036617852 0.164158884524 0.0
-0.300844964512 -0.0879587859678 0.0
-0.0347887937761 -0.00648095278358 0.0
-0.0201249706765 -0.0157924321342 0.0
0.264476582871 -0.0363734187143 0.0
-0.0224997973771 0.105230696086 0.0
0.00338951883469 0.00950232651593 0.0
-0.00193003638372 -0.000221767857683 0.0
0.00839683599137 0.00272751174655 0.0
-0.079627294203 -0.463034112156 0.0
-0.00195953946906 0.00110637976539 0.0
-0.0361812876625 0.0848888737924 0.0
-0.159943921614 -0.0193881901639 0.0
-0.0641868048545 0.157600408217 0.0
-0.0738029136597 0.0495397826371 0.0
-0.0499339680653 -0.0142643004058 0.0
0.312053761188 0.0324917247871 0.0
-0.0106251098506 0.0578748666455 0.0
-0.00054731253698 0.0171780636649 0.0
0.00322500889331 -0.00167125740834 0.0
-0.14047993922 -0.33243701839 0.0
0.0105283338118 0.000313026901565 0.0
0.0774898642217 0.0558275160276 0.0
-0.00468881733902 0.0108637786252 0.0
-0.266628869473 -0.248828323694 0.0
0.0822273394887 0.151178786823 0.0
0.00098004670111 -0.00579410783845 0.0
-0.0242872036128 0.0280951691188 0.0
0.151431734846 0.0908857081019 0.0
-0.0359620925263 0.0607842336521 0.0
-0.0539172103131 -0.0298287422358 0.0
-0.00478359502743 -0.00742973817815 0.0
-0.120906137681 0.0138346641153 0.0
-0.00785403610405 0.000550682076122 0.0
-0.0119005112782 -0.00426388747824 0.0
0.0833541514247 -0.0178265971106 0.0
-0.0408330802024 0.094579349798 0.0
-0.237374360569 0.00270666992909 0.0
0.352423873169 0.0136973091791 0.0
-0.00918655438496 0.0695073821891 0.0
0.00217598665359 0.0171589613922 0.0
0.00178099361081 -0.00104398220402 0.0
-0.342607427141 -0.182006875009 0.0
0.000559544316578 -0.0105742424216 0.0
-0.168402430906 0.162262948067 0.0
-0.0192662141411 0.204036259565 0.0
-0.0461289334912 0.0216734217859 0.0
-0.282992453198 0.0204177548992 0.0
-0.109418753474 -0.0138331594864 0.0
-0.0678455628684 0.000376234910958 0.0
-0.29516395282 0.0843145502529 0.0
-0.222297839219 0.116973705505 0.0
0.264626923926 0.0400763317688 0.0
-0.00703492471977 0.0313867409664 0.0
-0.0115153739013 -0.00865925572284 0.0
0.00826674461864 -0.00116622215571 0.0
0.133193448263 0.125765552792 0.0
-0.0242063249129 0.0407705449944 0.0
-0.13000718965 -0.115316192482 0.0
0.00188658763687 -0.00588055588213 0.0
0.182506530417 -0.0163483090935 0.0
-0.0263168491094 0.0921151490619 0.0
0.00520119426207 0.0125273901113 0.0
-0.00573909004308 -0.00205271642362 0.0
-0.041604435634 -0.201243490275 0.0
-0.0259754290005 0.100826322613 0.0
0.0105356742735 0.00399550580517 0.0
-0.00795989252354 0.0045077531293 0.0
-0.0223959125361 0.151374368254 0.0
-0.0215069552654 0.00574158023754 0.0
-0.0235301505046 -0.0089339276603 0.0
-0.0552601477868 -0.122838431836 0.0
0.0106714063322 -0.000279994157896 0.0
0.193195477908 0.0400754244348 0.0
-0.00410981159804 0.0146663797188 0.0
-0.0706571496168 0.120443735984 0.0
-0.181696868608 -0.0794360061017 0.0
-0.0167056275854 -0.0150075280882 0.0
0.00163766991529 0.00145055544446 0.0
0.000614094837723 -0.000636557397662 0.0
0.17687830626 -0.254368681132 0.0
-0.078651845642 0.160987643633 0.0
0.351239365261 0.0301643502154 0.0
-0.0062185594914 0.0397350857465 0.0
-0.00161210132687 0.0137514231018 0.0
0.00616416517482 -0.00102144036915 0.0
0.426146115203 -0.00162570652485 0.0
-0.00747480927397 0.0784359703479 0.0
0.00236106913021 0.0115145382851 0.0
0.000728733823801 -0.000403615985542 0.0
-0.120372837914 -0.520407003718 0.0
0.00947709960015 0.00107675760738 0.0
0.0593920051839 0.057432886421 0.0
-0.00139827110162 0.00198326105807 0.0
0.131768065831 -0.0585338368703 0.0
-0.0264384009283 0.103397044609 0.0
0.00789793735948 0.0103514239897 0.0
-0.00597873830225 0.000125749622152 0.0
-0.195524019999 -0.334505014414 0.0
0.00491956151894 0.103991942354 0.0
0.0106376617848 0.000659822296853 0.0
-0.0109481831347 0.010645687191 0.0
0.0280175170343 0.124195322685 0.0
-0.058981065637 0.0564656205465 0.0
-0.0306581384931 -0.0105593217808 0.0
-0.174506019616 0.158622776513 0.0
-0.109207107277 0.058161783525 0.0
-0.0552935345523 -0.0156703516819 0.0
-0.183133184107 -0.0859348210706 0.0
-0.00854272229768 -0.00786879757684 0.0
-0.069981355552 0.0943397966602 0.0
-0.082929737583 0.0799327373212 0.0
-0.101580874165 -0.0285460807142 0.0
-0.352095115903 -0.0439386333903 0.0
-0.0502658234473 -0.0132369652282 0.0
0.408419776563 -0.0504652571295 0.0
-0.0228251430872 0.107114324 0.0
0.00163093817392 0.0054300581683 0.0
0.000482885240749 -0.000267605244173 0.0
0.00495850616535 0.0015903226408 0.0
-0.0681340708244 -0.557919901507 0.0
-0.000244467207874 -0.000787435226088 0.0
-0.021756542679 0.0810251975778 0.0
-0.0532205610693 0.172501012841 0.0
-0.0411510591912 0.00320131752767 0.0
-0.00448545837292 -0.0124142921535 0.0
0.226578072811 0.0614917161398 0.0
-0.0213339034228 0.0630819625073 0.0
-0.0133857011109 0.0025257934573 0.0
-0.00158912654111 -0.00378627232558 0.0
-0.0192234400029 -0.10935010042 0.0
-0.0324343020793 0.117864244253 0.0
0.00910188009525 0.00329073771487 0.0
-0.0146191099796 0.00139845056259 0.0
-0.127158345039 -0.142134914564 0.0
0.00850882429214 -0.00136233940689 0.0
0.130612296453 0.0408008309287 0.0
-0.0418391878297 0.0776716308327 0.0
-0.0251841761038 -0.00953119014894 0.0
-0.00862248883866 -0.00711670666651 0.0
-0.102920982491 -0.376988790597 0.0
0.00956596613813 0.000651317429125 0.0
0.144429730164 0.0370675895397 0.0
-0.00180077399234 0.00445765713708 0.0
0.114769845527 -0.118854939967 0.0
-0.0392322086728 0.111576952462 0.0
0.00636338772959 0.00700243962076 0.0
-0.00219565194503 0.000464298534016 0.0
0.032176574223 0.163160037396 0.0
-0.0244703301941 0.0177978530799 0.0
-0.293251003362 -0.0296511429968 0.0
-0.061623114504 -0.0102787347052 0.0
-0.0644671751227 0.204479825058 0.0
0.0363796081159 -0.110117816304 0.0
-0.0289832309689 0.106597035174 0.0
0.0101143916326 0.00642607506197 0.0
-0.00939410976562 0.0021416295928 0.0
-0.0292386071333 0.000964465061344 0.0
-0.185792545458 -0.276393635267 0.0
0.080853646428 0.0891544204457 0.0
0.00919910961633 -0.00142693188143 0.0
-0.0108951629328 0.0211809326134 0.0
-0.303150854261 -0.274306229797 0.0
0.00563415791792 -0.00463659713319 0.0
-0.185838846975 0.0250548796863 0.0
-0.272086920474 0.0467052649118 0.0
-0.0281790911116 -0.0129953835231 0.0
-0.204153464747 -0.240268180812 0.0
0.0102588085708 -0.00148693352956 0.0
0.00167723956471 0.134065448879 0.0
-0.0173903137381 0.0109218550488 0.0
-0.159349065775 0.104068271243 0.0
-0.012938953119 -0.0184499039654 0.0
0.00800260137894 -0.000523728951821 0.0
0.353708777467 0.0266943978807 0.0
-0.00304842425004 0.0167266901258 0.0
-0.096833409056 0.121002888993 0.0
-0.190539974278 -0.0617706119983 0.0
-0.0330361027815 -0.250635270038 0.0
-0.0356405070405 0.0955577014735 0.0
0.00945635129079 0.00420909492574 0.0
-0.00442054136373 0.00277008677189 0.0
0.171784003779 0.0868284266412 0.0
-0.0147300518322 0.0379292138471 0.0
-0.0568404412433 -0.0618247379112 0.0
0.00470483985273 -0.00295831202664 0.0
-0.175540126039 0.0540498726565 0.0
0.03151042334 0.188271496111 0.0
-0.0349158759929 0.0222853003215 0.0
0.240253547008 0.0104668897096 0.0
-0.0191046557126 0.0832160995216 0.0
0.00344731341142 0.0160176393418 0.0
-0.00338654494817 -0.00211335218056 0.0
-0.271036514707 0.104453738301 0.0
0.50308313912 0.00701045013981 0.0
-0.00441469167077 0.0603480755608 0.0
0.00153088735288 0.0127695334354 0.0
0.00215958976979 -0.000450119103014 0.0
-0.0955944550599 0.0261211110018 0.0
0.480824580253 0.00817205872064 0.0
-0.00468281366673 0.0468391854781 0.0
0.000816209859536 0.0155172604626 0.0
0.00170820431517 -0.000684100444501 0.0
-0.354040905718 -0.115171871867 0.0
-0.0162374622779 -0.014270391319 0.0
-0.110300219932 0.187400668913 0.0
-0.167953557305 0.187805193798 0.0
-0.297549136086 -0.129095214212 0.0
-0.00408300976487 -0.0103443174615 0.0
0.152100475305 -0.0582431275584 0.0
-0.0276796233739 0.106687816216 0.0
0.0058394660318 0.00964042540468 0.0
-0.00436890110525 0.000146389145162 0.0
0.020357736568 -0.0607519183408 0.0
-0.0405973827474 0.111469612235 0.0
0.00184777639456 0.00268135056937 0.0
-0.0164094162837 -0.00240564904484 0.0
0.0134686388228 -0.253451963142 0.0
0.00672501449619 0.00426890180916 0.0
-0.0500130200033 0.101951672531 0.0
-0.00209359544127 0.000547450003796 0.0
-0.137834571715 0.0421932585005 0.0
-0.301394526349 -0.137062105044 0.0
-0.00510110156481 -0.0131367843374 0.0
-0.102459392856 -0.0535794476404 0.0
-0.0530251650975 0.000348075932407 0.0
-0.293402734553 -0.20119699795 0.0
0.00288094066238 -0.00880686351783 0.0
-0.119830688296 0.146259713194 0.0
-0.227106269995 0.12654777403 0.0
0.00230528400288 0.177753130433 0.0
-0.0739301520777 0.201502882742 0.0
-0.0515352675706 0.0361881911694 0.0
-0.0634520253358 0.0264280729922 0.0
-0.25330509004 -0.033412325393 0.0
-0.102166961792 -0.0218957595792 0.0
-0.0456986833686 -0.0141687058216 0.0
0.535173163531 -0.0112796307694 0.0
-0.00771688800516 0.07534457424 0.0
0.00123027639473 0.0073979598866 0.0
0.00173698244007 -0.000254412718787 0.0
0.00645038615556 0.000718163724109 0.0
-0.0843046415237 -0.551499908038 0.0
-0.000340963242214 -0.000268021716601 0.0
0.114015121258 0.0528107050818 0.0
0.0911085319573 0.0807928079713 0.0
-0.0446461209331 0.0665090681678 0.0
-0.0365457400574 -0.119171595283 0.0
0.00873643229791 0.000196869284605 0.0
0.315343778469 0.018409164228 0.0
-0.0017474605874 0.00728085511611 0.0
0.186302274278 0.102215370001 0.0
-0.027371609037 0.0516144116304 0.0
-0.0735407049616 -0.0523057094491 0.0
0.000229805572263 -0.00565151762612 0.0
0.557776045389 0.0152446003335 0.0
-0.0029259538433 0.0320145535934 0.0
0.000355090359191 0.0138855793552 0.0
0.00411888704833 -0.000524441590874 0.0
-0.204057290437 -0.44183336171 0.0
0.00789041470458 -0.000120981376915 0.0
0.0273146270094 0.094596773405 0.0
-0.0103961288024 0.0141836837454 0.0
0.123621103835 0.113999146078 0.0
-0.148584821012 -0.169927738168 0.0
-0.0180588793485 0.031861822943 0.0
0.00595469779438 -0.00366661538305 0.0
-0.264243428196 -0.303330676525 0.0
0.0705799065805 0.128053980119 0.0
0.00782198735807 -0.00317548326032 0.0
-0.017896586898 0.0232424421223 0.0
-0.0557033825796 0.101618995407 0.0
-0.0134738134754 -0.00742646511674 0.0
-0.128207467587 -0.462926442458 0.0
0.00902381328908 0.00225179562309 0.0
-0.0238074869788 0.0791342363853 0.0
-0.00347117941098 0.00333400133649 0.0
-0.0341235944689 -0.0151081553494 0.0
0.238179025369 -0.0266271747463 0.0
-0.0192386006312 0.100868843941 0.0
0.00464477241341 0.0116438867871 0.0
-0.00183293954084 -0.000445489359917 0.0
-0.118766068136 0.0279233699162 0.0
-0.169549273307 -0.0126124164211 0.0
-0.0458690059661 -0.00834425327361 0.0
0.252209636294 0.0363535860398 0.0
-0.0173626448411 0.0706895949533 0.0
-0.0010835864759 0.0148418835593 0.0
-0.00160578539739 -0.00260502109822 0.0
0.00115695995137 0.00246986930964 0.0
0.000883848311645 -0.000339948935099 0.0
0.414341719736 -0.104944358498 0.0
0.00253402292661 0.000899064012931 0.0
-0.0365934963036 0.131389087561 0.0
-0.0398259396677 -0.595431005821 0.0
0.000164260735243 -0.000957018710712 0.0
0.00178152819453 0.08310277943 0.0
-0.00804436279309 -0.00937306718044 0.0
-0.00062940478134 0.00768987275087 0.0
-0.0095783065713 -0.0035388662925 0.0
0.107940820184 0.120911755973 0.0
-0.0454163287816 0.0534788487989 0.0
-0.123712021576 0.131536470623 0.0
-0.102938223624 0.0722356389303 0.0
-0.242042773254 -0.386320643568 0.0
0.0109722588593 0.000828339065961 0.0
0.0194158682891 0.0743706772575 0.0
-0.00629850379744 0.0102957200144 0.0
0.154131789376 -0.00642377482607 0.0
-0.0330174929024 0.089461214536 0.0
-0.0206258029625 -0.00792845677576 0.0
-0.0261950086061 -0.00526862567796 0.0
-0.0787789269794 0.000216151185654 0.0
0.257217035431 0.0511277863381 0.0
-0.013442206749 0.0541277207722 0.0
-0.00626354498559 0.00973283146815 0.0
0.00239660950651 -0.00237156929649 0.0
0.103755593377 0.159976552346 0.0
-0.0327254504926 0.0346468090302 0.0
-0.16357499235 -0.00495823266376 0.0
-0.115359099562 -0.0491379906755 0.0
-0.0029628819754 -0.00921691165893 0.0
-0.116992268966 -0.078841917353 0.0
-0.257138979408 0.0699827668395 0.0
-0.065808878271 0.0334290914029 0.0
-0.100964939318 -0.00046552914052 0.0
0.0377923857782 0.00667875661284 0.0
-0.0313051581955 -0.0106184820554 0.0
-0.0665064818774 0.143847586148 0.0
-0.206962645441 0.0143615568693 0.0
0.184839876102 0.0571475009043 0.0
-0.0330651695291 0.070058223066 0.0
-0.0223864940773 -0.00689916492196 0.0
-0.00335054598858 -0.00548740595207 0.0
-0.0726933460731 0.0966653620747 0.0
-0.141205079013 -0.0482986061093 0.0
-0.00121638993474 0.169102086329 0.0
-0.0241347467072 0.0111700183078 0.0
-0.313449590992 -0.216741773427 0.0
0.00711069672023 -0.0072605612751 0.0
0.542643906103 0.0233796906044 0.0
-0.00177938239002 0.021889007805 0.0
6.46054345963e-05 0.0122806984936 0.0
0.00615433887135 -0.000389658512608 0.0
0.00383096046679 0.00743757515669 0.0
-0.0096585153336 -0.00238945323245 0.0
-0.20796153941 0.15136030253 0.0
0.104212358721 -0.0409736165525 0.0
-0.034972196786 0.0980734690795 0.0
-0.318784575807 0.0413111879668 0.0
-0.217895420686 0.024382508203 0.0
-0.28684388484 -0.000310240380804 0.0
-0.0179548148327 -0.0131069773252 0.0
-0.0484989047239 0.0127907858394 0.0
-0.331587290638 -0.0285152154018 0.0
-0.095465433297 -0.00971807007483 0.0
-0.0177628851425 -0.136545050454 0.0
-0.0262700767675 0.113283136526 0.0
0.00970871205651 0.00427175017538 0.0
-0.012301522283 0.00345944020547 0.0
-0.112373565402 -0.242275794722 0.0
-0.0144670621333 0.105417062794 0.0
0.0110503536932 0.00214829701792 0.0
-0.010627228815 0.00735148144451 0.0
-0.00968018403578 -0.014868407323 0.0
0.175482703021 -0.0302092080331 0.0
-0.0242258778687 0.0976855717719 0.0
0.00691264586178 0.0126913320094 0.0
-0.00483509365088 -0.000927964181219 0.0
0.271929048127 0.00536892454447 0.0
-0.0151038870179 0.0843767951497 0.0
0.00390811405844 0.0164107208289 0.0
-0.000180712039897 -0.00135267342004 0.0
0.0412725842981 0.187251651214 0.0
-0.0423562949645 0.0294130134138 0.0
-0.0175156704307 -0.00499224612291 0.0
-0.245791778209 -0.0788339030587 0.0
-0.0189678219754 -0.0111421862531 0.0
-0.129254713002 0.190287199428 0.0
-0.0840349081204 0.0326898580234 0.0
0.594860192279 0.00409408786941 0.0
-0.00260112639198 0.0451796256888 0.0
0.000719962573838 0.01193752058 0.0
0.00258097662772 -0.000315456714629 0.0
-0.0503328574435 0.114643213126 0.0
-0.153180025942 0.131706838137 0.0
-0.0308889457837 -0.134448919915 0.0
0.00746214050056 0.000182669070807 0.0
0.400786097033 0.0239622344187 0.0
-0.000717369215345 0.00377779149907 0.0
0.30948910946 0.0262294417261 0.0
-0.0112133991582 0.066015543929 0.0
0.00129825392638 0.0180369715713 0.0
0.000985525099182 -0.00160840983568 0.0
-0.064894186092 0.209976600016 0.0
-0.0277887838417 0.205908795869 0.0
-0.0321062533629 0.134985839476 0.0
-0.0183054994996 0.0026752039818 0.0
-0.314977787493 0.0555393325285 0.0
0.233336986951 -0.0768520952604 0.0
-0.0331866250885 0.115347293506 0.0