# vtk DataFile Version 2.0
2D Simulation Python
ASCII
DATASET UNSTRUCTURED_GRID
FIELD FieldData 1
NODES 1 2 int
3798 7382

POINTS 3798 double
0.0 0.0 0.0
1.0 0.0 0.0
1.0 1.0 0.0
0.0 1.0 0.0
0.01886792452826637 0.0 0.0
0.03773584905653053 0.0 0.0
0.05660377358479097 0.0 0.0
0.07547169811305962 0.0 0.0
0.09433962264133271 0.0 0.0
0.1132075471696058 0.0 0.0
0.1320754716978688 0.0 0.0
0.1509433962261159 0.0 0.0
0.1698113207543628 0.0 0.0
0.1886792452826097 0.0 0.0
0.2075471698108566 0.0 0.0
0.2264150943391035 0.0 0.0
0.2452830188673504 0.0 0.0
0.2641509433955972 0.0 0.0
0.2830188679238441 0.0 0.0
0.301886792452091 0.0 0.0
0.3207547169803379 0.0 0.0
0.3396226415085848 0.0 0.0
0.3584905660368317 0.0 0.0
0.3773584905650785 0.0 0.0
0.3962264150933255 0.0 0.0
0.4150943396215723 0.0 0.0
0.4339622641498192 0.0 0.0
0.4528301886780661 0.0 0.0
0.4716981132063129 0.0 0.0
0.4905660377345599 0.0 0.0
0.5094339622628591 0.0 0.0
0.5283018867912108 0.0 0.0
0.5471698113195625 0.0 0.0
0.5660377358479143 0.0 0.0
0.5849056603762659 0.0 0.0
0.6037735849046176 0.0 0.0
0.6226415094329693 0.0 0.0
0.6415094339613208 0.0 0.0
0.6603773584896723 0.0 0.0
0.6792452830180238 0.0 0.0
0.6981132075463754 0.0 0.0
0.7169811320747269 0.0 0.0
0.7358490566030784 0.0 0.0
0.7547169811314299 0.0 0.0
0.7735849056597816 0.0 0.0
0.7924528301881331 0.0 0.0
0.8113207547164847 0.0 0.0
0.8301886792448361 0.0 0.0
0.8490566037731877 0.0 0.0
0.8679245283015392 0.0 0.0
0.8867924528298908 0.0 0.0
0.9056603773582425 0.0 0.0
0.9245283018865939 0.0 0.0
0.9433962264149454 0.0 0.0
0.962264150943297 0.0 0.0
0.9811320754716486 0.0 0.0
1.0 0.01886792452826637 0.0
1.0 0.03773584905653053 0.0
1.0 0.05660377358479097 0.0
1.0 0.07547169811305962 0.0
1.0 0.09433962264133271 0.0
1.0 0.1132075471696058 0.0
1.0 0.1320754716978688 0.0
1.0 0.1509433962261159 0.0
1.0 0.1698113207543628 0.0
1.0 0.1886792452826097 0.0
1.0 0.2075471698108566 0.0
1.0 0.2264150943391035 0.0
1.0 0.2452830188673504 0.0
1.0 0.2641509433955972 0.0
1.0 0.2830188679238441 0.0
1.0 0.301886792452091 0.0
1.0 0.3207547169803379 0.0
1.0 0.3396226415085848 0.0
1.0 0.3584905660368317 0.0
1.0 0.3773584905650785 0.0
1.0 0.3962264150933255 0.0
1.0 0.4150943396215723 0.0
1.0 0.4339622641498192 0.0
1.0 0.4528301886780661 0.0
1.0 0.4716981132063129 0.0
1.0 0.4905660377345599 0.0
1.0 0.5094339622628591 0.0
1.0 0.5283018867912108 0.0
1.0 0.5471698113195625 0.0
1.0 0.5660377358479143 0.0
1.0 0.5849056603762659 0.0
1.0 0.6037735849046176 0.0
1.0 0.6226415094329693 0.0
1.0 0.6415094339613208 0.0
1.0 0.6603773584896723 0.0
1.0 0.6792452830180238 0.0
1.0 0.6981132075463754 0.0
1.0 0.7169811320747269 0.0
1.0 0.7358490566030784 0.0
1.0 0.7547169811314299 0.0
1.0 0.7735849056597816 0.0
1.0 0.7924528301881331 0.0
1.0 0.8113207547164847 0.0
1.0 0.8301886792448361 0.0
1.0 0.8490566037731877 0.0
1.0 0.8679245283015392 0.0
1.0 0.8867924528298908 0.0
1.0 0.9056603773582425 0.0
1.0 0.9245283018865939 0.0
1.0 0.9433962264149454 0.0
1.0 0.962264150943297 0.0
1.0 0.9811320754716486 0.0
0.9811320754716195 1.0 0.0
0.9622641509432391 1.0 0.0
0.9433962264148587 1.0 0.0
0.9245283018864782 1.0 0.0
0.9056603773580978 1.0 0.0
0.8867924528297173 1.0 0.0
0.8679245283014174 1.0 0.0
0.8490566037732444 1.0 0.0
0.8301886792450734 1.0 0.0
0.8113207547169025 1.0 0.0
0.7924528301887315 1.0 0.0
0.7735849056605606 1.0 0.0
0.7547169811323896 1.0 0.0
0.7358490566042186 1.0 0.0
0.7169811320760476 1.0 0.0
0.6981132075478766 1.0 0.0
0.6792452830197057 1.0 0.0
0.6603773584915346 1.0 0.0
0.6415094339633636 1.0 0.0
0.6226415094351925 1.0 0.0
0.6037735849070215 1.0 0.0
0.5849056603788504 1.0 0.0
0.5660377358506794 1.0 0.0
0.5471698113225083 1.0 0.0
0.5283018867943372 1.0 0.0
0.5094339622661662 1.0 0.0
0.4905660377378905 1.0 0.0
0.4716981132095099 1.0 0.0
0.4528301886811295 1.0 0.0
0.4339622641527489 1.0 0.0
0.4150943396243684 1.0 0.0
0.3962264150959879 1.0 0.0
0.3773584905676074 1.0 0.0
0.358490566039227 1.0 0.0
0.3396226415108468 1.0 0.0
0.3207547169824663 1.0 0.0
0.3018867924540859 1.0 0.0
0.2830188679257056 1.0 0.0
0.2641509433973251 1.0 0.0
0.2452830188689448 1.0 0.0
0.2264150943405645 1.0 0.0
0.2075471698121841 1.0 0.0
0.1886792452838036 1.0 0.0
0.1698113207554234 1.0 0.0
0.150943396227043 1.0 0.0
0.1320754716986625 1.0 0.0
0.1132075471702823 1.0 0.0
0.09433962264190188 1.0 0.0
0.0754716981135215 1.0 0.0
0.05660377358514113 1.0 0.0
0.03773584905676075 1.0 0.0
0.01886792452838049 1.0 0.0
0.0 0.9811320754716195 0.0
0.0 0.9622641509432391 0.0
0.0 0.9433962264148587 0.0
0.0 0.9245283018864782 0.0
0.0 0.9056603773580978 0.0
0.0 0.8867924528297173 0.0
0.0 0.8679245283014174 0.0
0.0 0.8490566037732444 0.0
0.0 0.8301886792450734 0.0
0.0 0.8113207547169025 0.0
0.0 0.7924528301887315 0.0
0.0 0.7735849056605606 0.0
0.0 0.7547169811323896 0.0
0.0 0.7358490566042186 0.0
0.0 0.7169811320760476 0.0
0.0 0.6981132075478766 0.0
0.0 0.6792452830197057 0.0
0.0 0.6603773584915346 0.0
0.0 0.6415094339633636 0.0
0.0 0.6226415094351925 0.0
0.0 0.6037735849070215 0.0
0.0 0.5849056603788504 0.0
0.0 0.5660377358506794 0.0
0.0 0.5471698113225083 0.0
0.0 0.5283018867943372 0.0
0.0 0.5094339622661662 0.0
0.0 0.4905660377378905 0.0
0.0 0.4716981132095099 0.0
0.0 0.4528301886811295 0.0
0.0 0.4339622641527489 0.0
0.0 0.4150943396243684 0.0
0.0 0.3962264150959879 0.0
0.0 0.3773584905676074 0.0
0.0 0.358490566039227 0.0
0.0 0.3396226415108468 0.0
0.0 0.3207547169824663 0.0
0.0 0.3018867924540859 0.0
0.0 0.2830188679257056 0.0
0.0 0.2641509433973251 0.0
0.0 0.2452830188689448 0.0
0.0 0.2264150943405645 0.0
0.0 0.2075471698121841 0.0
0.0 0.1886792452838036 0.0
0.0 0.1698113207554234 0.0
0.0 0.150943396227043 0.0
0.0 0.1320754716986625 0.0
0.0 0.1132075471702823 0.0
0.0 0.09433962264190188 0.0
0.0 0.0754716981135215 0.0
0.0 0.05660377358514113 0.0
0.0 0.03773584905676075 0.0
0.0 0.01886792452838049 0.0
0.49964245324922407 0.49831498509656563 0.0
0.7093553420605543 0.706795091686707 0.0
0.2928626693119982 0.711246520756297 0.0
0.706583863765652 0.2920489866870052 0.0
0.29162868853046586 0.29521432154366434 0.0
0.5010144050863541 0.783665991772883 0.0
0.21626386106866352 0.5012608889670678 0.0
0.7821235687900443 0.4994725733908102 0.0
0.4969751494020403 0.21661340468007592 0.0
0.8268904613581425 0.828715113316842 0.0
0.1712518553142655 0.8268479231593318 0.0
0.8301164181831919 0.17182462957602032 0.0
0.17182436082365077 0.16988525788785833 0.0
0.5640436100354583 0.6420235400530174 0.0
0.3607274323999292 0.5670897317378014 0.0
0.6411755578664797 0.431994292915016 0.0
0.43556508533378413 0.3638332783586967 0.0
0.6411095189310729 0.8479180597483275 0.0
0.15186418027062157 0.6411177568812765 0.0
0.8477129966686763 0.35982245644194655 0.0
0.3593875171838355 0.15134877518685041 0.0
0.8498439677420604 0.6398386509661307 0.0
0.3618879114693968 0.8474912209064865 0.0
0.6435673595293633 0.15185234940817255 0.0
0.1508211592887953 0.3589211238130621 0.0
0.6833230736596047 0.5824488884782533 0.0
0.44543622974633335 0.6626817851539444 0.0
0.334297728869914 0.43859071139263917 0.0
0.5773651354782467 0.3195698218028151 0.0
0.5368550204948941 0.8869289919114091 0.0
0.11307115932578796 0.5368551498614293 0.0
0.8862296494114937 0.4627297362385353 0.0
0.4622133969210189 0.11379645947004904 0.0
0.7354679819585992 0.8878082940753641 0.0
0.11219629990822114 0.73546767004077 0.0
0.8875941287498987 0.26470414776109186 0.0
0.2645076955714869 0.11222066370583056 0.0
0.891945385906306 0.7430626725611289 0.0
0.7379181041370169 0.1095292052370524 0.0
0.2617556887965499 0.8906393387866711 0.0
0.109389188229707 0.2617878045415151 0.0
0.6036071605814237 0.7408291249265981 0.0
0.2594917527260112 0.6023502230929751 0.0
0.7473102652520626 0.3970433071522065 0.0
0.3961634994164723 0.25851888358962294 0.0
0.5973947314947681 0.528256413716625 0.0
0.5269324634525689 0.40329305323341913 0.0
0.9003992260919937 0.09725079761772336 0.0
0.0972505365506856 0.09960098318692259 0.0
0.902905832451086 0.9004952898327292 0.0
0.09959984396677293 0.9027507793964256 0.0
0.38319291080292356 0.7484037340401543 0.0
0.25074149933027856 0.3828678207284646 0.0
0.9036598081112557 0.5634853057240528 0.0
0.436074131323361 0.9037966151657194 0.0
0.5635253180840611 0.09629531168449021 0.0
0.09611186212656095 0.43615538079580796 0.0
0.7382815873297992 0.797748736245979 0.0
0.20209096753283912 0.7380896231241791 0.0
0.7965622828106198 0.25838635630576223 0.0
0.25830592482167924 0.2034015490956353 0.0
0.8017310000224149 0.7232159344473338 0.0
0.2777475500191493 0.7984996229107593 0.0
0.7229750579608853 0.19891341029260054 0.0
0.2013833983279598 0.27785513870855133 0.0
0.489117034337342 0.5910957123639575 0.0
0.4114293262945181 0.49482609300426894 0.0
0.7552948201653407 0.6323522459552295 0.0
0.632374678396229 0.2447110465654724 0.0
0.3557803754229626 0.6535621309442992 0.0
0.6947703546898438 0.495455143684927 0.0
0.34699692631128753 0.3552720988403499 0.0
0.49375116992439977 0.30830802143951974 0.0
0.8187236856558324 0.9148411469800104 0.0
0.08515875067362669 0.8187235950295833 0.0
0.9150154431225769 0.1813224124552375 0.0
0.18127635800204356 0.08515726871485194 0.0
0.8187013695756591 0.08418016015801069 0.0
0.9157963147547328 0.8185867044397643 0.0
0.08417986783667654 0.18129835779475598 0.0
0.18129918574723897 0.9158090701535069 0.0
0.6492014757622371 0.6583385471966713 0.0
0.5181454994701659 0.7000969557097787 0.0
0.29945590549465007 0.5183683403250918 0.0
0.6529966949932424 0.3525352535158858 0.0
0.6097250887652965 0.9218271155031528 0.0
0.07817202819288319 0.6097247568771206 0.0
0.9218365147102562 0.3902668111352348 0.0
0.39025183291859017 0.07814290733445543 0.0
0.9257219704706496 0.6658131510301671 0.0
0.6657858534343193 0.0750749251881459 0.0
0.3341385428720748 0.9246686900769885 0.0
0.07537397250464638 0.3341817544682322 0.0
0.8225112153356803 0.5643826741682121 0.0
0.43495802119520954 0.827303458370995 0.0
0.5643514407790131 0.17749675163961798 0.0
0.17276882633614254 0.4351602615236833 0.0
0.5669074778651899 0.8125476706901507 0.0
[...]
POINT_DATA 3798
VECTORS vector double
0.0 0.0 0.0
0.0 0.0 0.0
0.0 0.0 0.0
0.0 0.0 0.0
0.0 0.0 0.0
0.0 0.0 0.0
0.0 0.0 0.0
0.0 0.0 0.0
0.0 0.0 0.0
0.0 0.0 0.0
0.0 0.0 0.0
0.0 0.0 0.0
0.0 0.0 0.0
0.0 0.0 0.0
0.0 0.0 0.0
0.0 0.0 0.0
0.0 0.0 0.0
0.0 0.0 0.0
0.0 0.0 0.0
0.0 0.0 0.0
0.0 0.0 0.0
0.0 0.0 0.0
0.0 0.0 0.0
0.0 0.0 0.0
0.0 0.0 0.0
0.0 0.0 0.0
0.0 0.0 0.0
0.0 0.0 0.0
0.0 0.0 0.0
0.0 0.0 0.0
0.0 0.0 0.0
0.0 0.0 0.0
0.0 0.0 0.0
0.0 0.0 0.0
0.0 0.0 0.0
0.0 0.0 0.0
0.0 0.0 0.0
0.0 0.0 0.0
0.0 0.0 0.0
0.0 0.0 0.0
0.0 0.0 0.0
0.0 0.0 0.0
0.0 0.0 0.0
0.0 0.0 0.0
0.0 0.0 0.0
0.0 0.0 0.0
0.0 0.0 0.0
0.0 0.0 0.0
0.0 0.0 0.0
0.0 0.0 0.0
0.0 0.0 0.0
0.0 0.0 0.0
0.0 0.0 0.0
0.0 0.0 0.0
0.0 0.0 0.0
0.0 0.0 0.0
0.0 0.0 0.0
0.0 0.0 0.0
0.0 0.0 0.0
0.0 0.0 0.0
0.0 0.0 0.0
0.0 0.0 0.0
0.0 0.0 0.0
0.0 0.0 0.0
0.0 0.0 0.0
0.0 0.0 0.0
0.0 0.0 0.0
0.0 0.0 0.0
0.0 0.0 0.0
0.0 0.0 0.0
0.0 0.0 0.0
0.0 0.0 0.0
0.0 0.0 0.0
0.0 0.0 0.0
0.0 0.0 0.0
0.0 0.0 0.0
0.0 0.0 0.0
0.0 0.0 0.0
0.0 0.0 0.0
0.0 0.0 0.0
0.0 0.0 0.0
0.0 0.0 0.0
0.0 0.0 0.0
0.0 0.0 0.0
0.0 0.0 0.0
0.0 0.0 0.0
0.0 0.0 0.0
0.0 0.0 0.0
0.0 0.0 0.0
0.0 0.0 0.0
0.0 0.0 0.0
0.0 0.0 0.0
0.0 0.0 0.0
0.0 0.0 0.0
0.0 0.0 0.0
0.0 0.0 0.0
0.0 0.0 0.0
0.0 0.0 0.0
0.0 0.0 0.0
0.0 0.0 0.0
0.0 0.0 0.0
0.0 0.0 0.0
0.0 0.0 0.0
0.0 0.0 0.0
0.0 0.0 0.0
0.0 0.0 0.0
0.0 0.0 0.0
0.0 0.0 0.0
1.0 0.0 0.0
1.0 0.0 0.0
1.0 0.0 0.0
1.0 0.0 0.0
1.0 0.0 0.0
1.0 0.0 0.0
1.0 0.0 0.0
1.0 0.0 0.0
1.0 0.0 0.0
1.0 0.0 0.0
1.0 0.0 0.0
1.0 0.0 0.0
1.0 0.0 0.0
1.0 0.0 0.0
1.0 0.0 0.0
1.0 0.0 0.0
1.0 0.0 0.0
1.0 0.0 0.0
1.0 0.0 0.0
1.0 0.0 0.0
1.0 0.0 0.0
1.0 0.0 0.0
1.0 0.0 0.0
1.0 0.0 0.0
1.0 0.0 0.0
1.0 0.0 0.0
1.0 0.0 0.0
1.0 0.0 0.0
1.0 0.0 0.0
1.0 0.0 0.0
1.0 0.0 0.0
1.0 0.0 0.0
1.0 0.0 0.0
1.0 0.0 0.0
1.0 0.0 0.0
1.0 0.0 0.0
1.0 0.0 0.0
1.0 0.0 0.0
1.0 0.0 0.0
1.0 0.0 0.0
1.0 0.0 0.0
1.0 0.0 0.0
1.0 0.0 0.0
1.0 0.0 0.0
1.0 0.0 0.0
1.0 0.0 0.0
1.0 0.0 0.0
1.0 0.0 0.0
1.0 0.0 0.0
1.0 0.0 0.0
1.0 0.0 0.0
1.0 0.0 0.0
0.0 0.0 0.0
0.0 0.0 0.0
0.0 0.0 0.0
0.0 0.0 0.0
0.0 0.0 0.0
0.0 0.0 0.0
0.0 0.0 0.0
0.0 0.0 0.0
0.0 0.0 0.0
0.0 0.0 0.0
0.0 0.0 0.0
0.0 0.0 0.0
0.0 0.0 0.0
0.0 0.0 0.0
0.0 0.0 0.0
0.0 0.0 0.0
0.0 0.0 0.0
0.0 0.0 0.0
0.0 0.0 0.0
0.0 0.0 0.0
0.0 0.0 0.0
0.0 0.0 0.0
0.0 0.0 0.0
0.0 0.0 0.0
0.0 0.0 0.0
0.0 0.0 0.0
0.0 0.0 0.0
0.0 0.0 0.0
0.0 0.0 0.0
0.0 0.0 0.0
0.0 0.0 0.0
0.0 0.0 0.0
0.0 0.0 0.0
0.0 0.0 0.0
0.0 0.0 0.0
0.0 0.0 0.0
0.0 0.0 0.0
0.0 0.0 0.0
0.0 0.0 0.0
0.0 0.0 0.0
0.0 0.0 0.0
0.0 0.0 0.0
0.0 0.0 0.0
0.0 0.0 0.0
0.0 0.0 0.0
0.0 0.0 0.0
0.0 0.0 0.0
0.0 0.0 0.0
0.0 0.0 0.0
0.0 0.0 0.0
0.0 0.0 0.0
0.0 0.0 0.0
-0.23360158306 0.0639007207402 0.0
-0.0713469099169 -0.0833244214758 0.0
-0.0455345041622 0.135971457784 0.0
0.000153455268279 -0.00174919323984 0.0
-0.0216626192819 -0.00190742150861 0.0
0.0785602075656 0.158046727672 0.0
-0.0402058732194 0.0396979223976 0.0
-0.224246063245 -0.135636107173 0.0
0.000514179456332 -0.0100981888636 0.0
0.057860115236 -0.121118252773 0.0
-0.0324688731008 0.104811166237 0.0
0.00844076712074 0.00711843662798 0.0
-0.00548388496714 0.00135447869026 0.0
-0.18260416924 0.0944156251897 0.0
-0.128083425428 0.109837870063 0.0
-0.172842350481 -0.0338041851744 0.0
-0.0489814504347 -0.0112643619964 0.0
0.207145623317 0.0253615203068 0.0
-0.0274550674289 0.0786479239764 0.0
-0.00467303001835 0.00878989709607 0.0
-0.00373350258775 -0.00382881041725 0.0
-0.268589821938 -0.348364868656 0.0
0.0378732281636 0.121223462056 0.0
0.00965824159278 -0.00140774591125 0.0
-0.0148931962408 0.0162516098633 0.0
-0.318029829308 -0.0797227548353 0.0
-0.120996604447 0.203623365687 0.0
-0.0652223929125 0.0135081822878 0.0
-0.0242988478238 -0.0125898284532 0.0
0.211828492803 0.0740881524765 0.0
-0.0168508723585 0.049038786344 0.0
-0.0250976083952 -0.0168120985326 0.0
0.00237717975901 -0.00328492729132 0.0
0.230682507186 -0.0115340786188 0.0
-0.0178939279768 0.0937484528098 0.0
0.00531915641314 0.014580017429 0.0
-0.00280714508257 -0.00107777967113 0.0
-0.157304111921 -0.424547576978 0.0
0.0119041989123 0.0019448201996 0.0
-0.0110833715203 0.0813279387142 0.0
-0.00514103715964 0.00607503428742 0.0
0.0147496133421 0.0483470739056 0.0
-0.0600482647953 0.0829153700057 0.0
-0.0612181289884 -0.027699189836 0.0
-0.0132304755612 -0.0108531435049 0.0
-0.330750533233 0.0187701498617 0.0
-0.117389166463 -0.00145950417728 0.0
0.00432039250867 0.00405412981678 0.0
-0.000209176592378 -0.000536906946506 0.0
0.114074606184 -0.216445834115 0.0
-0.0598158608634 0.121354460177 0.0
-0.0137734129207 0.190768959357 0.0
-0.0315279731131 0.00991831751729 0.0
-0.0924765556926 -0.129263109542 0.0
0.139514041998 0.0782950467412 0.0
0.00919108376937 -0.00183272659968 0.0
-0.0108919531627 0.026728527433 0.0
0.0817535933974 -0.0720903557766 0.0
-0.03125348904 0.104131326059 0.0
0.00890668936223 0.0082422907067 0.0
-0.0104447969546 -0.000606055660151 0.0
-0.0851053081782 -0.181162207753 0.0
-0.0184259304838 0.120225911238 0.0
0.0111315218196 0.00228913527735 0.0
-0.0137573081524 0.00562477948836 0.0
-0.218871369871 0.152134526666 0.0
-0.147965950388 0.0632439541409 0.0
-0.242174691901 -0.173031885359 0.0
0.0070846289932 -0.005348750182 0.0
-0.0911036617852 0.166497971688 0.0
-0.300844964512 -0.0884719313198 0.0
-0.0347887937761 -0.00674720957024 0.0
-0.0201249706765 -0.0152896472149 0.0
0.264476582871 -0.0367254134817 0.0
-0.0224997973771 0.105273007 0.0
0.00338951883469 0.00955605937503 0.0
-0.00193003638372 -0.000300456633267 0.0
0.00839683599137 0.00277273677299 0.0
-0.079627294203 -0.463580657635 0.0
-0.00195953946906 0.000867504218436 0.0
-0.0361812876625 0.0849476055222 0.0
-0.159943921614 -0.0200822271555 0.0
-0.0641868048545 0.156180426776 0.0
-0.0738029136597 0.0500661386193 0.0
-0.0499339680653 -0.0139071371024 0.0
0.312053761188 0.0321904542591 0.0
-0.0106251098506 0.0575823875492 0.0
-0.00054731253698 0.0171315669321 0.0
0.00322500889331 -0.00168321539154 0.0
-0.14047993922 -0.333976906078 0.0
0.0105283338118 0.000377554918852 0.0
0.0774898642217 0.056187240932 0.0
-0.00468881733902 0.0104080491185 0.0
-0.266628869473 -0.249875968039 0.0
0.0822273394887 0.151763599763 0.0
0.00098004670111 -0.00559896703249 0.0
-0.0242872036128 0.0274604833664 0.0
0.151431734846 0.0897731204117 0.0
-0.0359620925263 0.0604385493823 0.0
-0.0539172103131 -0.0301928247272 0.0
-0.00478359502743 -0.00745910011294 0.0
-0.120906137681 0.0151493065004 0.0
-0.00785403610405 0.000638349940124 0.0
-0.0119005112782 -0.00450967825288 0.0
0.0833541514247 -0.0184278162668 0.0
-0.0408330802024 0.0950573248675 0.0
-0.237374360569 0.00332497385695 0.0
0.352423873169 0.0134314121608 0.0
-0.00918655438496 0.0693991337262 0.0
0.00217598665359 0.0171663321007 0.0
0.00178099361081 -0.00107995122279 0.0
-0.342607427141 -0.182700377344 0.0
0.000559544316578 -0.0101930994122 0.0
-0.168402430906 0.16383892297 0.0
-0.0192662141411 0.204245704416 0.0
-0.0461289334912 0.0211414156344 0.0
-0.282992453198 0.0195881302383 0.0
-0.109418753474 -0.0132341755359 0.0
-0.0678455628684 0.000993701418834 0.0
-0.29516395282 0.0839915680451 0.0
-0.222297839219 0.118468751599 0.0
0.264626923926 0.0403214456218 0.0
-0.00703492471977 0.0309913347869 0.0
-0.0115153739013 -0.00894550794716 0.0
0.00826674461864 -0.00114084417681 0.0
0.133193448263 0.125505409486 0.0
-0.0242063249129 0.0402044813012 0.0
-0.13000718965 -0.116158371349 0.0
0.00188658763687 -0.00578869955841 0.0
0.182506530417 -0.0168219035552 0.0
-0.0263168491094 0.0921932582205 0.0
0.00520119426207 0.0126718523458 0.0
-0.00573909004308 -0.00222054130447 0.0
-0.041604435634 -0.201594368115 0.0
-0.0259754290005 0.101422366981 0.0
0.0105356742735 0.00417694688574 0.0
-0.00795989252354 0.00416574062471 0.0
-0.0223959125361 0.153431256359 0.0
-0.0215069552654 0.00517302426335 0.0
-0.0235301505046 -0.00924489893039 0.0
-0.0552601477868 -0.123800032966 0.0
0.0106714063322 -0.000233775853367 0.0
0.193195477908 0.0403523892682 0.0
-0.00410981159804 0.0142015189142 0.0
-0.0706571496168 0.122229671817 0.0
-0.181696868608 -0.0801235645001 0.0
-0.0167056275854 -0.0148387539014 0.0
0.00163766991529 0.00143597425994 0.0
0.000614094837723 -0.000670027936653 0.0
0.17687830626 -0.254097128928 0.0
-0.078651845642 0.161125371967 0.0
0.351239365261 0.0300132601784 0.0
-0.0062185594914 0.0393968018663 0.0
-0.00161210132687 0.0136796480384 0.0
0.00616416517482 -0.00101319927929 0.0
0.426146115203 -0.00173305386503 0.0
-0.00747480927397 0.0783653665213 0.0
0.00236106913021 0.0115398973234 0.0
0.000728733823801 -0.000438630178084 0.0
-0.120372837914 -0.521049206891 0.0
0.00947709960015 0.00110553631239 0.0
0.0593920051839 0.0575250215763 0.0
-0.00139827110162 0.00170718593561 0.0
0.131768065831 -0.0588540726794 0.0
-0.0264384009283 0.10359500215 0.0
0.00789793735948 0.0105322450893 0.0
-0.00597873830225 -6.40964272274e-05 0.0
-0.195524019999 -0.334397053365 0.0
0.00491956151894 0.105074878159 0.0
0.0106376617848 0.00084410076833 0.0
-0.0109481831347 0.0101737769638 0.0
0.0280175170343 0.122859006726 0.0
-0.058981065637 0.0564486318125 0.0
-0.0306581384931 -0.0103569633224 0.0
-0.174506019616 0.157888822318 0.0
-0.109207107277 0.0594597925835 0.0
-0.0552935345523 -0.0164393780039 0.0
-0.183133184107 -0.0861134236276 0.0
-0.00854272229768 -0.00745546767311 0.0
-0.069981355552 0.092926064639 0.0
-0.082929737583 0.0810569535468 0.0
-0.101580874165 -0.028509711095 0.0
-0.352095115903 -0.0441250216469 0.0
-0.0502658234473 -0.0124680100313 0.0
0.408419776563 -0.0505366271088 0.0
-0.0228251430872 0.107003201852 0.0
0.00163093817392 0.0054141711469 0.0
0.000482885240749 -0.000302907001043 0.0
0.00495850616535 0.00159856891871 0.0
-0.0681340708244 -0.558100359954 0.0
-0.000244467207874 -0.000912502621601 0.0
-0.021756542679 0.0811596955245 0.0
-0.0532205610693 0.174839597756 0.0
-0.0411510591912 0.00273268452247 0.0
-0.00448545837292 -0.012337288211 0.0
0.226578072811 0.0609131330318 0.0
-0.0213339034228 0.0627247743968 0.0
-0.0133857011109 0.00234557178717 0.0
-0.00158912654111 -0.00381351030333 0.0
-0.0192234400029 -0.109523752321 0.0
-0.0324343020793 0.119065016769 0.0
0.00910188009525 0.00357474205929 0.0
-0.0146191099796 0.000992758997507 0.0
-0.127158345039 -0.14223096784 0.0
0.00850882429214 -0.00102935093528 0.0
0.130612296453 0.0397644471347 0.0
-0.0418391878297 0.0776785516824 0.0
-0.0251841761038 -0.00965760792801 0.0
-0.00862248883866 -0.00725772806123 0.0
-0.102920982491 -0.377912808583 0.0
0.00956596613813 0.000679394893263 0.0
0.144429730164 0.0371575774329 0.0
-0.00180077399234 0.00411665377878 0.0
0.114769845527 -0.119697311684 0.0
-0.0392322086728 0.111666210775 0.0
0.00636338772959 0.00707521912155 0.0
-0.00219565194503 0.000305716637542 0.0
0.032176574223 0.164716155354 0.0
-0.0244703301941 0.0171525513959 0.0
-0.293251003362 -0.0297003311533 0.0
-0.061623114504 -0.00935728187254 0.0
-0.0644671751227 0.205984932478 0.0
0.0363796081159 -0.110328461996 0.0
-0.0289832309689 0.107186089498 0.0
0.0101143916326 0.00664895944299 0.0
-0.00939410976562 0.00184193080962 0.0
-0.0292386071333 0.000385498285275 0.0
-0.185792545458 -0.277295306779 0.0
0.080853646428 0.0899330138161 0.0
0.00919910961633 -0.0013103617959 0.0
-0.0108951629328 0.0206413847028 0.0
-0.303150854261 -0.274814582067 0.0
0.00563415791792 -0.00436869864333 0.0
-0.185838846975 0.0262737397373 0.0
-0.272086920474 0.047318180972 0.0
-0.0281790911116 -0.0129900027643 0.0
-0.204153464747 -0.240454772279 0.0
0.0102588085708 -0.00121408585714 0.0
0.00167723956471 0.135725664083 0.0
-0.0173903137381 0.0103810600077 0.0
-0.159349065775 0.106001712516 0.0
-0.012938953119 -0.0188140104249 0.0
0.00800260137894 -0.000498497487304 0.0
0.353708777467 0.0268614009956 0.0
-0.00304842425004 0.0163199424832 0.0
-0.096833409056 0.12299456416 0.0
-0.190539974278 -0.0620828218107 0.0
-0.0330361027815 -0.251212352127 0.0
-0.0356405070405 0.0957903155826 0.0
0.00945635129079 0.00432011110848 0.0
-0.00442054136373 0.00248829671049 0.0
0.171784003779 0.0868870520983 0.0
-0.0147300518322 0.0374399654333 0.0
-0.0568404412433 -0.0622440759004 0.0
0.00470483985273 -0.00290232987952 0.0
-0.175540126039 0.0555538399116 0.0
0.03151042334 0.188945519908 0.0
-0.0349158759929 0.021619961855 0.0
0.240253547008 0.00995306648041 0.0
-0.0191046557126 0.0831603041376 0.0
0.00344731341142 0.016086827027 0.0
-0.00338654494817 -0.00220529684045 0.0
-0.271036514707 0.105086137123 0.0
0.50308313912 0.00690643995379 0.0
-0.00441469167077 0.060197095661 0.0
0.00153088735288 0.012753758407 0.0
0.00215958976979 -0.000471592961118 0.0
-0.0955944550599 0.02716711585 0.0
0.480824580253 0.00805123707582 0.0
-0.00468281366673 0.0467380777882 0.0
0.000816209859536 0.015492239052 0.0
0.00170820431517 -0.000689842855996 0.0
-0.354040905718 -0.115540623318 0.0
-0.0162374622779 -0.0137337187614 0.0
-0.110300219932 0.189196633498 0.0
-0.167953557305 0.188346626186 0.0
-0.297549136086 -0.12947089075 0.0
-0.00408300976487 -0.00985700912445 0.0
0.152100475305 -0.0587550649318 0.0
-0.0276796233739 0.106808498398 0.0
0.0058394660318 0.00976385583277 0.0
-0.00436890110525 4.21629767495e-06 0.0
0.020357736568 -0.0610421992019 0.0
-0.0405973827474 0.112529233016 0.0
0.00184777639456 0.00290985980561 0.0
-0.0164094162837 -0.00276354826786 0.0
0.0134686388228 -0.254437530798 0.0
0.00672501449619 0.0043208273947 0.0
-0.0500130200033 0.102003111039 0.0
-0.00209359544127 0.000360730824504 0.0
-0.137834571715 0.041085522417 0.0
-0.301394526349 -0.137974357061 0.0
-0.00510110156481 -0.0128069562039 0.0
-0.102459392856 -0.0541709146822 0.0
-0.0530251650975 0.000400213198235 0.0
-0.293402734553 -0.202231043201 0.0
0.00288094066238 -0.00856024753505 0.0
-0.119830688296 0.148389979602 0.0
-0.227106269995 0.125970599637 0.0
0.00230528400288 0.176849974672 0.0
-0.0739301520777 0.201142173219 0.0
-0.0515352675706 0.0358662357896 0.0
-0.0634520253358 0.026481965301 0.0
-0.25330509004 -0.0342336679524 0.0
-0.102166961792 -0.0216205284767 0.0
-0.0456986833686 -0.013657652683 0.0
0.535173163531 -0.0114221344433 0.0
-0.00771688800516 0.0752683963483 0.0
0.00123027639473 0.00737740219121 0.0
0.00173698244007 -0.000274302062403 0.0
0.00645038615556 0.000724938379689 0.0
-0.0843046415237 -0.552321118609 0.0
-0.000340963242214 -0.000447376860739 0.0
0.114015121258 0.0528674769133 0.0
0.0911085319573 0.0794503462494 0.0
-0.0446461209331 0.0663779653419 0.0
-0.0365457400574 -0.120160248857 0.0
0.00873643229791 0.000217737757847 0.0
0.315343778469 0.0185500584033 0.0
-0.0017474605874 0.00693175256934 0.0
0.186302274278 0.101561260044 0.0
-0.027371609037 0.051142605135 0.0
-0.0735407049616 -0.052968886467 0.0
0.000229805572263 -0.00561701701722 0.0
0.557776045389 0.0150014710341 0.0
-0.0029259538433 0.0316950275267 0.0
0.000355090359191 0.0138160839302 0.0
0.00411888704833 -0.00052152041587 0.0
-0.204057290437 -0.442366276024 0.0
0.00789041470458 1.41045753866e-05 0.0
0.0273146270094 0.0955693275982 0.0
-0.0103961288024 0.0136766789637 0.0
0.123621103835 0.114386079521 0.0
-0.148584821012 -0.170930933913 0.0
-0.0180588793485 0.0312731355693 0.0
0.00595469779438 -0.00355207726607 0.0
-0.264243428196 -0.304333624917 0.0
0.0705799065805 0.129083481972 0.0
0.00782198735807 -0.00300276840412 0.0
-0.017896586898 0.0226520130423 0.0
-0.0557033825796 0.102696216312 0.0
-0.0134738134754 -0.00768347583727 0.0
-0.128207467587 -0.463874828226 0.0
0.00902381328908 0.00232074851653 0.0
-0.0238074869788 0.0793127183691 0.0
-0.00347117941098 0.0030185445387 0.0
-0.0341235944689 -0.014516767587 0.0
0.238179025369 -0.0270149619194 0.0
-0.0192386006312 0.100942409092 0.0
0.00464477241341 0.0117335446344 0.0
-0.00183293954084 -0.00053801275104 0.0
-0.118766068136 0.0292401536147 0.0
-0.169549273307 -0.0121133580405 0.0
-0.0458690059661 -0.00815189038766 0.0
0.252209636294 0.0358679654358 0.0
-0.0173626448411 0.0704509057243 0.0
-0.0010835864759 0.0148118450797 0.0
-0.00160578539739 -0.00265816165631 0.0
0.00115695995137 0.00245084639012 0.0
0.000883848311645 -0.000363104676132 0.0
0.414341719736 -0.104928121204 0.0
0.00253402292661 0.000892521934818 0.0
-0.0365934963036 0.13137721695 0.0
-0.0398259396677 -0.595888165691 0.0
0.000164260735243 -0.00101349096199 0.0
0.00178152819453 0.083098742536 0.0
-0.00804436279309 -0.00942866723605 0.0
-0.00062940478134 0.00778818421126 0.0
-0.0095783065713 -0.00371603627167 0.0
0.107940820184 0.119634986607 0.0
-0.0454163287816 0.0530987331286 0.0
-0.123712021576 0.130237654832 0.0
-0.102938223624 0.0735669288094 0.0
-0.242042773254 -0.386930811353 0.0
0.0109722588593 0.000930153339866 0.0
0.0194158682891 0.0749494447882 0.0
-0.00629850379744 0.00983555936132 0.0
0.154131789376 -0.007174208465 0.0
-0.0330174929024 0.0896022417012 0.0
-0.0206258029625 -0.00758813599366 0.0
-0.0261950086061 -0.0057183516421 0.0
-0.0787789269794 0.00123138095048 0.0
0.257217035431 0.0507908717015 0.0
-0.013442206749 0.053758627445 0.0
-0.00626354498559 0.00962764195852 0.0
0.00239660950651 -0.00236979682236 0.0
0.103755593377 0.159800630196 0.0
-0.0327254504926 0.0340179008879 0.0
-0.16357499235 -0.00418473559806 0.0
-0.115359099562 -0.0496348873423 0.0
-0.0029628819754 -0.0091718769802 0.0
-0.116992268966 -0.0794071356523 0.0
-0.257138979408 0.0691033908678 0.0
-0.065808878271 0.0322120072093 0.0
-0.100964939318 0.000671339571764 0.0
0.0377923857782 0.00592660986411 0.0
-0.0313051581955 -0.0106233352275 0.0
-0.0665064818774 0.146053818245 0.0
-0.206962645441 0.0133938630837 0.0
0.184839876102 0.0562601158188 0.0
-0.0330651695291 0.0698005013974 0.0
-0.0223864940773 -0.00712766136976 0.0
-0.00335054598858 -0.00557432859878 0.0
-0.0726933460731 0.0979790136753 0.0
-0.141205079013 -0.0485153725292 0.0
-0.00121638993474 0.171135560432 0.0
-0.0241347467072 0.0105282670213 0.0
-0.313449590992 -0.217075077242 0.0
0.00711069672023 -0.0069107590831 0.0
0.542643906103 0.023415712835 0.0
-0.00177938239002 0.0216002378366 0.0
6.46054345963e-05 0.0122687183417 0.0
0.00615433887135 -0.000386332985686 0.0
0.00383096046679 0.00761615195726 0.0
-0.0096585153336 -0.00264390996964 0.0
-0.20796153941 0.152626261162 0.0
0.104212358721 -0.0414286665881 0.0
-0.034972196786 0.0984476822219 0.0
-0.318784575807 0.0408979997515 0.0
-0.217895420686 0.0252312970484 0.0
-0.28684388484 -2.50972872777e-05 0.0
-0.0179548148327 -0.0131547656055 0.0
-0.0484989047239 0.0123885280036 0.0
-0.331587290638 -0.0290052584875 0.0
-0.095465433297 -0.00891455501282 0.0
-0.0177628851425 -0.136772863589 0.0
-0.0262700767675 0.114308816679 0.0
0.00970871205651 0.00452093451944 0.0
-0.012301522283 0.00306745774691 0.0
-0.112373565402 -0.242676930801 0.0
-0.0144670621333 0.106402412812 0.0
0.0110503536932 0.00235037878314 0.0
-0.010627228815 0.00692780228757 0.0
-0.00968018403578 -0.0146064635978 0.0
0.175482703021 -0.0305321565683 0.0
-0.0242258778687 0.0977936843608 0.0
0.00691264586178 0.0128605502633 0.0
-0.00483509365088 -0.00109329876145 0.0
0.271929048127 0.00503067115404 0.0
-0.0151038870179 0.0843368164293 0.0
0.00390811405844 0.0164883509421 0.0
-0.000180712039897 -0.00142889655482 0.0
0.0412725842981 0.187065500099 0.0
-0.0423562949645 0.028814806112 0.0
-0.0175156704307 -0.00535967941888 0.0
-0.245791778209 -0.0792842198396 0.0
-0.0189678219754 -0.0106348269647 0.0
-0.129254713002 0.189853127252 0.0
-0.0840349081204 0.0333787410057 0.0
0.594860192279 0.00396944969418 0.0
-0.00260112639198 0.0450419805358 0.0
0.000719962573838 0.0118990912908 0.0
0.00258097662772 -0.000322433299864 0.0
-0.0503328574435 0.116023854919 0.0
-0.153180025942 0.133671025947 0.0
-0.0308889457837 -0.134858269956 0.0
0.00746214050056 0.000188523280649 0.0
0.400786097033 0.0240192036909 0.0
-0.000717369215345 0.00350141239731 0.0
0.30948910946 0.0258992233692 0.0
-0.0112133991582 0.0658389379964 0.0
0.00129825392638 0.0180218579173 0.0
0.000985525099182 -0.0016426593571 0.0
-0.064894186092 0.210527388471 0.0
-0.0277887838417 0.206963041474 0.0
-0.0321062533629 0.136786413216 0.0
-0.0183054994996 0.00218067218071 0.0
-0.314977787493 0.0556372955416 0.0
0.233336986951 -0.0772947745385 0.0
-0.0331866250885 0.11538544075 0.0