# vtk DataFile Version 2.0
2D Simulation Python
ASCII
DATASET UNSTRUCTURED_GRID
FIELD FieldData 1
NODES 1 2 int
3798 7382

POINTS 3798 double
0.0 0.0 0.0
1.0 0.0 0.0
1.0 1.0 0.0
0.0 1.0 0.0
0.01886792452826637 0.0 0.0
0.03773584905653053 0.0 0.0
0.05660377358479097 0.0 0.0
0.07547169811305962 0.0 0.0
0.09433962264133271 0.0 0.0
0.1132075471696058 0.0 0.0
0.1320754716978688 0.0 0.0
0.1509433962261159 0.0 0.0
0.1698113207543628 0.0 0.0
0.1886792452826097 0.0 0.0
0.2075471698108566 0.0 0.0
0.2264150943391035 0.0 0.0
0.2452830188673504 0.0 0.0
0.2641509433955972 0.0 0.0
0.2830188679238441 0.0 0.0
0.301886792452091 0.0 0.0
0.3207547169803379 0.0 0.0
0.3396226415085848 0.0 0.0
0.3584905660368317 0.0 0.0
0.3773584905650785 0.0 0.0
0.3962264150933255 0.0 0.0
0.4150943396215723 0.0 0.0
0.4339622641498192 0.0 0.0
0.4528301886780661 0.0 0.0
0.4716981132063129 0.0 0.0
0.4905660377345599 0.0 0.0
0.5094339622628591 0.0 0.0
0.5283018867912108 0.0 0.0
0.5471698113195625 0.0 0.0
0.5660377358479143 0.0 0.0
0.5849056603762659 0.0 0.0
0.6037735849046176 0.0 0.0
0.6226415094329693 0.0 0.0
0.6415094339613208 0.0 0.0
0.6603773584896723 0.0 0.0
0.6792452830180238 0.0 0.0
0.6981132075463754 0.0 0.0
0.7169811320747269 0.0 0.0
0.7358490566030784 0.0 0.0
0.7547169811314299 0.0 0.0
0.7735849056597816 0.0 0.0
0.7924528301881331 0.0 0.0
0.8113207547164847 0.0 0.0
0.8301886792448361 0.0 0.0
0.8490566037731877 0.0 0.0
0.8679245283015392 0.0 0.0
0.8867924528298908 0.0 0.0
0.9056603773582425 0.0 0.0
0.9245283018865939 0.0 0.0
0.9433962264149454 0.0 0.0
0.962264150943297 0.0 0.0
0.9811320754716486 0.0 0.0
1.0 0.01886792452826637 0.0
1.0 0.03773584905653053 0.0
1.0 0.05660377358479097 0.0
1.0 0.07547169811305962 0.0
1.0 0.09433962264133271 0.0
1.0 0.1132075471696058 0.0
1.0 0.1320754716978688 0.0
1.0 0.1509433962261159 0.0
1.0 0.1698113207543628 0.0
1.0 0.1886792452826097 0.0
1.0 0.2075471698108566 0.0
1.0 0.2264150943391035 0.0
1.0 0.2452830188673504 0.0
1.0 0.2641509433955972 0.0
1.0 0.2830188679238441 0.0
1.0 0.301886792452091 0.0
1.0 0.3207547169803379 0.0
1.0 0.3396226415085848 0.0
1.0 0.3584905660368317 0.0
1.0 0.3773584905650785 0.0
1.0 0.3962264150933255 0.0
1.0 0.4150943396215723 0.0
1.0 0.4339622641498192 0.0
1.0 0.4528301886780661 0.0
1.0 0.4716981132063129 0.0
1.0 0.4905660377345599 0.0
1.0 0.5094339622628591 0.0
1.0 0.5283018867912108 0.0
1.0 0.5471698113195625 0.0
1.0 0.5660377358479143 0.0
1.0 0.5849056603762659 0.0
1.0 0.6037735849046176 0.0
1.0 0.6226415094329693 0.0
1.0 0.6415094339613208 0.0
1.0 0.6603773584896723 0.0
1.0 0.6792452830180238 0.0
1.0 0.6981132075463754 0.0
1.0 0.7169811320747269 0.0
1.0 0.7358490566030784 0.0
1.0 0.7547169811314299 0.0
1.0 0.7735849056597816 0.0
1.0 0.7924528301881331 0.0
1.0 0.8113207547164847 0.0
1.0 0.8301886792448361 0.0
1.0 0.8490566037731877 0.0
1.0 0.8679245283015392 0.0
1.0 0.8867924528298908 0.0
1.0 0.9056603773582425 0.0
1.0 0.9245283018865939 0.0
1.0 0.9433962264149454 0.0
1.0 0.962264150943297 0.0
1.0 0.9811320754716486 0.0
0.9811320754716195 1.0 0.0
0.9622641509432391 1.0 0.0
0.9433962264148587 1.0 0.0
0.9245283018864782 1.0 0.0
0.9056603773580978 1.0 0.0
0.8867924528297173 1.0 0.0
0.8679245283014174 1.0 0.0
0.8490566037732444 1.0 0.0
0.8301886792450734 1.0 0.0
0.8113207547169025 1.0 0.0
0.7924528301887315 1.0 0.0
0.7735849056605606 1.0 0.0
0.7547169811323896 1.0 0.0
0.7358490566042186 1.0 0.0
0.7169811320760476 1.0 0.0
0.6981132075478766 1.0 0.0
0.6792452830197057 1.0 0.0
0.6603773584915346 1.0 0.0
0.6415094339633636 1.0 0.0
0.6226415094351925 1.0 0.0
0.6037735849070215 1.0 0.0
0.5849056603788504 1.0 0.0
0.5660377358506794 1.0 0.0
0.5471698113225083 1.0 0.0
0.5283018867943372 1.0 0.0
0.5094339622661662 1.0 0.0
0.4905660377378905 1.0 0.0
0.4716981132095099 1.0 0.0
0.4528301886811295 1.0 0.0
0.4339622641527489 1.0 0.0
0.4150943396243684 1.0 0.0
0.3962264150959879 1.0 0.0
0.3773584905676074 1.0 0.0
0.358490566039227 1.0 0.0
0.3396226415108468 1.0 0.0
0.3207547169824663 1.0 0.0
0.3018867924540859 1.0 0.0
0.2830188679257056 1.0 0.0
0.2641509433973251 1.0 0.0
0.2452830188689448 1.0 0.0
0.2264150943405645 1.0 0.0
0.2075471698121841 1.0 0.0
0.1886792452838036 1.0 0.0
0.1698113207554234 1.0 0.0
0.150943396227043 1.0 0.0
0.1320754716986625 1.0 0.0
0.1132075471702823 1.0 0.0
0.09433962264190188 1.0 0.0
0.0754716981135215 1.0 0.0
0.05660377358514113 1.0 0.0
0.03773584905676075 1.0 0.0
0.01886792452838049 1.0 0.0
0.0 0.9811320754716195 0.0
0.0 0.9622641509432391 0.0
0.0 0.9433962264148587 0.0
0.0 0.9245283018864782 0.0
0.0 0.9056603773580978 0.0
0.0 0.8867924528297173 0.0
0.0 0.8679245283014174 0.0
0.0 0.8490566037732444 0.0
0.0 0.8301886792450734 0.0
0.0 0.8113207547169025 0.0
0.0 0.7924528301887315 0.0
0.0 0.7735849056605606 0.0
0.0 0.7547169811323896 0.0
0.0 0.7358490566042186 0.0
0.0 0.7169811320760476 0.0
0.0 0.6981132075478766 0.0
0.0 0.6792452830197057 0.0
0.0 0.6603773584915346 0.0
0.0 0.6415094339633636 0.0
0.0 0.6226415094351925 0.0
0.0 0.6037735849070215 0.0
0.0 0.5849056603788504 0.0
0.0 0.5660377358506794 0.0
0.0 0.5471698113225083 0.0
0.0 0.5283018867943372 0.0
0.0 0.5094339622661662 0.0
0.0 0.4905660377378905 0.0
0.0 0.4716981132095099 0.0
0.0 0.4528301886811295 0.0
0.0 0.4339622641527489 0.0
0.0 0.4150943396243684 0.0
0.0 0.3962264150959879 0.0
0.0 0.3773584905676074 0.0
0.0 0.358490566039227 0.0
0.0 0.3396226415108468 0.0
0.0 0.3207547169824663 0.0
0.0 0.3018867924540859 0.0
0.0 0.2830188679257056 0.0
0.0 0.2641509433973251 0.0
0.0 0.2452830188689448 0.0
0.0 0.2264150943405645 0.0
0.0 0.2075471698121841 0.0
0.0 0.1886792452838036 0.0
0.0 0.1698113207554234 0.0
0.0 0.150943396227043 0.0
0.0 0.1320754716986625 0.0
0.0 0.1132075471702823 0.0
0.0 0.09433962264190188 0.0
0.0 0.0754716981135215 0.0
0.0 0.05660377358514113 0.0
0.0 0.03773584905676075 0.0
0.0 0.01886792452838049 0.0
0.49961422419268997 0.4984293794066726 0.0
0.7093511500970902 0.706792936500378 0.0
0.29287482782244045 0.7110496278611782 0.0
0.7065208514432915 0.2921137893028175 0.0
0.2917146567058879 0.2951459957249887 0.0
0.5010883512796402 0.783530677658598 0.0
0.2164159732426224 0.5012876322837192 0.0
0.7820505253934122 0.4994927647991782 0.0
0.4969563419356505 0.21663804071479492 0.0
0.8269192007901067 0.8287013252031155 0.0
0.1712682973217082 0.8268730922835856 0.0
0.8299941553097447 0.17180608262880254 0.0
0.17180615988223974 0.17000622072452293 0.0
0.5640959313975822 0.6420224840910225 0.0
0.36076803388570655 0.5671667288006801 0.0
0.641160245161879 0.4320186669377829 0.0
0.4354935082651592 0.36378759861759746 0.0
0.6410454186381067 0.8479832937118897 0.0
0.1518368310809157 0.6410829539811169 0.0
0.8477907051244511 0.3598243790179788 0.0
0.35938579904680457 0.15130729784326102 0.0
0.8497305928919907 0.6399401683101269 0.0
0.3617952267412937 0.8474454291453152 0.0
0.6436051449793575 0.15189469658234833 0.0
0.15079737625026685 0.3588783576988489 0.0
0.6832039587940572 0.5823618751624478 0.0
0.4454396775914624 0.6627381531764 0.0
0.33424594078221964 0.4385872006022409 0.0
0.5773189844856303 0.3195812160927133 0.0
0.5368082180804761 0.8869865896668006 0.0
0.11301341973883329 0.5368082072162796 0.0
0.8863497125425446 0.46278650800142523 0.0
0.46231798559604276 0.1137357048419064 0.0
0.735504344602733 0.8878298811845817 0.0
0.11217246241749894 0.7355045289688809 0.0
0.8876386118329569 0.26464529586215935 0.0
0.26447675721717134 0.11218714573944835 0.0
0.8918893682153743 0.7430319146751548 0.0
0.7378676821853629 0.10938784471235846 0.0
0.2618554236513495 0.8907466135047526 0.0
0.10927139946373736 0.2618885660485004 0.0
0.6036356850091371 0.740958324467786 0.0
0.2594197395873493 0.6024781400358834 0.0
0.7471835282093033 0.3970113006814754 0.0
0.39635295506120277 0.25856270415268773 0.0
0.5973835830959042 0.5282120591728078 0.0
0.5269880475515504 0.40324375384926064 0.0
0.900344051349824 0.09737126935472232 0.0
0.09737116846728401 0.09965601878423913 0.0
0.9027736024298996 0.9004379740924425 0.0
0.09965486244215357 0.9026299600545967 0.0
0.3830054844266893 0.7484876862569074 0.0
0.25074672726321157 0.3828059459383084 0.0
0.9036934196956306 0.5634343341860331 0.0
0.436167023944368 0.903809418557912 0.0
0.5634650142808684 0.09627038765249357 0.0
0.09611428176536896 0.43622888244072316 0.0
0.7383691909253696 0.7977530090605311 0.0
0.20213608094646243 0.7381864461382426 0.0
0.7965379729869333 0.25833485688790847 0.0
0.25825176979143294 0.20343822649683996 0.0
0.8016496201203362 0.7232057683389532 0.0
0.27776554876540255 0.7985644202275013 0.0
0.7230025466734626 0.19888476423555862 0.0
0.20134253349952064 0.2778412830843111 0.0
0.48914355287031674 0.5909586444150075 0.0
0.4113298235007088 0.49483643887222295 0.0
0.7553604068177817 0.6323161440656005 0.0
0.6323326401346647 0.2446343261447706 0.0
0.3558016573651024 0.6535168196958461 0.0
0.6947272998992697 0.49553252027219197 0.0
0.34695271761644664 0.35520182412877976 0.0
0.49374473330545476 0.3082796821038452 0.0
0.8187154539118972 0.9148861354006228 0.0
0.08511383208187207 0.8187154148724425 0.0
0.9150328940734902 0.18133025458140606 0.0
0.18128457425270267 0.0851129709589244 0.0
0.8187403987114168 0.08420346742597412 0.0
0.9157746719419576 0.8186373542270347 0.0
0.08420340483892619 0.18125955209024192 0.0
0.18126035834340148 0.9157847355643594 0.0
0.6491759294498078 0.6582605894876106 0.0
0.518075563238964 0.700155561243168 0.0
0.2994944160935228 0.5182519107636043 0.0
0.6529572976260253 0.35254842454839763 0.0
0.6097401473872117 0.9217208439447089 0.0
0.07827850601264716 0.6097398708442259 0.0
0.9217267277120186 0.3902548071573767 0.0
0.39024121399465406 0.07825838690395835 0.0
0.9257398577009572 0.6657069734842804 0.0
0.6657516430505073 0.07518432263878908 0.0
0.3341866530930919 0.9246109018771522 0.0
0.07542270790545244 0.3342243925275289 0.0
0.8225798016625723 0.5644120390192462 0.0
0.43501894509773303 0.8272239480204406 0.0
0.5644015723185061 0.17743228884395235 0.0
0.1728552698143025 0.4351788286843611 0.0
0.5668992511560398 0.812632221934239 0.0
[...]
POINT_DATA 3798
VECTORS vector double
0.0 0.0 0.0
0.0 0.0 0.0
0.0 0.0 0.0
0.0 0.0 0.0
0.0 0.0 0.0
0.0 0.0 0.0
0.0 0.0 0.0
0.0 0.0 0.0
0.0 0.0 0.0
0.0 0.0 0.0
0.0 0.0 0.0
0.0 0.0 0.0
0.0 0.0 0.0
0.0 0.0 0.0
0.0 0.0 0.0
0.0 0.0 0.0
0.0 0.0 0.0
0.0 0.0 0.0
0.0 0.0 0.0
0.0 0.0 0.0
0.0 0.0 0.0
0.0 0.0 0.0
0.0 0.0 0.0
0.0 0.0 0.0
0.0 0.0 0.0
0.0 0.0 0.0
0.0 0.0 0.0
0.0 0.0 0.0
0.0 0.0 0.0
0.0 0.0 0.0
0.0 0.0 0.0
0.0 0.0 0.0
0.0 0.0 0.0
0.0 0.0 0.0
0.0 0.0 0.0
0.0 0.0 0.0
0.0 0.0 0.0
0.0 0.0 0.0
0.0 0.0 0.0
0.0 0.0 0.0
0.0 0.0 0.0
0.0 0.0 0.0
0.0 0.0 0.0
0.0 0.0 0.0
0.0 0.0 0.0
0.0 0.0 0.0
0.0 0.0 0.0
0.0 0.0 0.0
0.0 0.0 0.0
0.0 0.0 0.0
0.0 0.0 0.0
0.0 0.0 0.0
0.0 0.0 0.0
0.0 0.0 0.0
0.0 0.0 0.0
0.0 0.0 0.0
0.0 0.0 0.0
0.0 0.0 0.0
0.0 0.0 0.0
0.0 0.0 0.0
0.0 0.0 0.0
0.0 0.0 0.0
0.0 0.0 0.0
0.0 0.0 0.0
0.0 0.0 0.0
0.0 0.0 0.0
0.0 0.0 0.0
0.0 0.0 0.0
0.0 0.0 0.0
0.0 0.0 0.0
0.0 0.0 0.0
0.0 0.0 0.0
0.0 0.0 0.0
0.0 0.0 0.0
0.0 0.0 0.0
0.0 0.0 0.0
0.0 0.0 0.0
0.0 0.0 0.0
0.0 0.0 0.0
0.0 0.0 0.0
0.0 0.0 0.0
0.0 0.0 0.0
0.0 0.0 0.0
0.0 0.0 0.0
0.0 0.0 0.0
0.0 0.0 0.0
0.0 0.0 0.0
0.0 0.0 0.0
0.0 0.0 0.0
0.0 0.0 0.0
0.0 0.0 0.0
0.0 0.0 0.0
0.0 0.0 0.0
0.0 0.0 0.0
0.0 0.0 0.0
0.0 0.0 0.0
0.0 0.0 0.0
0.0 0.0 0.0
0.0 0.0 0.0
0.0 0.0 0.0
0.0 0.0 0.0
0.0 0.0 0.0
0.0 0.0 0.0
0.0 0.0 0.0
0.0 0.0 0.0
0.0 0.0 0.0
0.0 0.0 0.0
0.0 0.0 0.0
1.0 0.0 0.0
1.0 0.0 0.0
1.0 0.0 0.0
1.0 0.0 0.0
1.0 0.0 0.0
1.0 0.0 0.0
1.0 0.0 0.0
1.0 0.0 0.0
1.0 0.0 0.0
1.0 0.0 0.0
1.0 0.0 0.0
1.0 0.0 0.0
1.0 0.0 0.0
1.0 0.0 0.0
1.0 0.0 0.0
1.0 0.0 0.0
1.0 0.0 0.0
1.0 0.0 0.0
1.0 0.0 0.0
1.0 0.0 0.0
1.0 0.0 0.0
1.0 0.0 0.0
1.0 0.0 0.0
1.0 0.0 0.0
1.0 0.0 0.0
1.0 0.0 0.0
1.0 0.0 0.0
1.0 0.0 0.0
1.0 0.0 0.0
1.0 0.0 0.0
1.0 0.0 0.0
1.0 0.0 0.0
1.0 0.0 0.0
1.0 0.0 0.0
1.0 0.0 0.0
1.0 0.0 0.0
1.0 0.0 0.0
1.0 0.0 0.0
1.0 0.0 0.0
1.0 0.0 0.0
1.0 0.0 0.0
1.0 0.0 0.0
1.0 0.0 0.0
1.0 0.0 0.0
1.0 0.0 0.0
1.0 0.0 0.0
1.0 0.0 0.0
1.0 0.0 0.0
1.0 0.0 0.0
1.0 0.0 0.0
1.0 0.0 0.0
1.0 0.0 0.0
0.0 0.0 0.0
0.0 0.0 0.0
0.0 0.0 0.0
0.0 0.0 0.0
0.0 0.0 0.0
0.0 0.0 0.0
0.0 0.0 0.0
0.0 0.0 0.0
0.0 0.0 0.0
0.0 0.0 0.0
0.0 0.0 0.0
0.0 0.0 0.0
0.0 0.0 0.0
0.0 0.0 0.0
0.0 0.0 0.0
0.0 0.0 0.0
0.0 0.0 0.0
0.0 0.0 0.0
0.0 0.0 0.0
0.0 0.0 0.0
0.0 0.0 0.0
0.0 0.0 0.0
0.0 0.0 0.0
0.0 0.0 0.0
0.0 0.0 0.0
0.0 0.0 0.0
0.0 0.0 0.0
0.0 0.0 0.0
0.0 0.0 0.0
0.0 0.0 0.0
0.0 0.0 0.0
0.0 0.0 0.0
0.0 0.0 0.0
0.0 0.0 0.0
0.0 0.0 0.0
0.0 0.0 0.0
0.0 0.0 0.0
0.0 0.0 0.0
0.0 0.0 0.0
0.0 0.0 0.0
0.0 0.0 0.0
0.0 0.0 0.0
0.0 0.0 0.0
0.0 0.0 0.0
0.0 0.0 0.0
0.0 0.0 0.0
0.0 0.0 0.0
0.0 0.0 0.0
0.0 0.0 0.0
0.0 0.0 0.0
0.0 0.0 0.0
0.0 0.0 0.0
-0.213053481831 0.0524711469114 0.0
-0.111838000045 -0.166854059955 0.0
-0.0583091323784 0.229787684359 0.0
-0.113411963015 -0.0752323633032 0.0
-0.0961725038081 0.0665692848099 0.0
0.0743445470225 0.10443809299 0.0
-0.0788003637133 0.170873375677 0.0
-0.185985248904 -0.233944147782 0.0
-0.115001691895 2.55157272312e-05 0.0
0.0318436190202 -0.309262042891 0.0
-0.0595121615961 0.245860173851 0.0
-0.0213567194272 -0.0215030088648 0.0
-0.0275104630555 0.023637795987 0.0
-0.147476911101 0.034402443961 0.0
-0.135095584487 0.174886724078 0.0
-0.221502040244 -0.0971088428338 0.0
-0.169922752165 0.0490122692725 0.0
0.262546767262 -0.00981169634636 0.0
-0.0423632579677 0.217388310432 0.0
-0.0603330501046 -0.100391050014 0.0
-0.0683590148582 0.016202823032 0.0
-0.162657307451 -0.390451370563 0.0
0.118224144998 0.131435848522 0.0
-0.0658578824848 -0.0191524166634 0.0
-0.0423150511542 0.0892616236806 0.0
-0.233528326911 -0.158063996561 0.0
-0.0972484478158 0.151789371106 0.0
-0.142027940053 0.123928853787 0.0
-0.167943795527 -0.0342746755587 0.0
0.380532210227 0.0357377644499 0.0
-0.0280253832827 0.151227562327 0.0
-0.0603044221077 -0.154964212992 0.0
-0.0637001555759 0.0025575931208 0.0
0.365105770948 -0.0698037818232 0.0
-0.034316650116 0.22602192744 0.0
-0.0182949397275 -0.0350668447505 0.0
-0.0356616305857 0.0117868781166 0.0
-0.11692945967 -0.489439453959 0.0
-0.0288365672765 -0.0120966815718 0.0
0.11881413685 0.128947111298 0.0
-0.0189513780788 0.0406106522584 0.0
-0.00690519980492 0.0119127637072 0.0
-0.085752157182 0.217099954642 0.0
-0.151464472919 -0.143861017746 0.0
-0.119981934428 0.0339854047257 0.0
-0.237466700956 -0.0440733503108 0.0
-0.207915169591 0.00219611845213 0.0
-0.00227879414029 -0.00262268285373 0.0
-0.00528021157444 0.00508596709389 0.0
0.0576452341506 -0.371033885868 0.0
-0.0780476471447 0.253085727909 0.0
-0.0149787030813 0.184002241379 0.0
-0.0930196630857 0.110210055758 0.0
-0.0734784620801 -0.240373083944 0.0
0.382461788001 0.0528390153213 0.0
-0.0525234761674 -0.0047555634807 0.0
-0.0222809198096 0.0985067960906 0.0
0.0618134929235 -0.157800780789 0.0
-0.0539932946592 0.251153528324 0.0
-0.0554490799307 -0.0570847083468 0.0
-0.059459896834 0.0357248342402 0.0
-0.137849600901 -0.353775528696 0.0
-0.0167271311072 0.211097228917 0.0
-0.0629618636699 -0.0379950463972 0.0
-0.0550966533111 0.0617799219179 0.0
-0.169767802187 0.0975326660518 0.0
-0.176161659223 0.117126823099 0.0
-0.210874133872 -0.278188628554 0.0
-0.114043377765 -0.0404369432221 0.0
-0.0918366484159 0.202361727548 0.0
-0.234466487044 -0.164371193083 0.0
-0.133758586298 0.0813306582609 0.0
-0.160633967101 0.00777221274782 0.0
0.375086360822 -0.115833590869 0.0
-0.0496736044728 0.238463567615 0.0
-0.00546144408878 -0.0096425569879 0.0
-0.014814831032 0.00667551071739 0.0
-0.00920545889746 -0.0060069141183 0.0
-0.0843478318731 -0.526566490177 0.0
-0.00895825707439 0.0157462935467 0.0
0.0966896802775 0.148428196735 0.0
-0.157934431252 -0.0812420850383 0.0
-0.0612920777239 0.096652478151 0.0
-0.118732187585 0.173925422101 0.0
-0.17202376726 -0.081354446588 0.0
0.563258964748 0.00177198466776 0.0
-0.0154695747882 0.143644825502 0.0
-0.0207537430706 -0.066381677232 0.0
-0.0407806053883 0.00390643571535 0.0
-0.069230855635 -0.33076981504 0.0
-0.0304599812333 -0.00609569680346 0.0
0.384677962888 0.0583841178058 0.0
-0.012691156722 0.0503696187684 0.0
-0.173637223917 -0.31064068036 0.0
0.1313118457 0.118015608161 0.0
-0.0915896927359 -0.0120225485595 0.0
-0.0565855436719 0.131388967639 0.0
0.155552179597 0.0487896243165 0.0
-0.0603227786255 0.199368309529 0.0
-0.112081858967 -0.16879454396 0.0
-0.0966886995194 0.0120177260717 0.0
-0.193165566981 0.0628257380079 0.0
-0.0974647738852 -0.103659205222 0.0
-0.0867489742672 0.0352678018113 0.0
0.0610934969005 -0.0583769791803 0.0
-0.0627043914153 0.239600202083 0.0
-0.23262110048 -0.0311317778079 0.0
0.583161156249 -0.0160792673862 0.0
-0.0141233282634 0.158190739217 0.0
-0.0114195035058 -0.0352955628628 0.0
-0.0309014669308 0.00493070375935 0.0
-0.227849613733 -0.253186053289 0.0
-0.130703507191 -0.0209704315 0.0
-0.143295155038 0.150110373129 0.0
-0.0217865968118 0.15081599363 0.0
-0.106807813356 0.143079790262 0.0
-0.212456921723 -0.0493245260558 0.0
-0.206737088716 -0.0477490434645 0.0
-0.164123820247 0.0868724149248 0.0
-0.208234136151 0.0190539186477 0.0
-0.183007643696 0.109064609424 0.0
0.576764547863 0.0184260442182 0.0
-0.0115552054181 0.0933953472185 0.0
-0.0277032633171 -0.128131896142 0.0
-0.0399708422636 -0.000633414040493 0.0
0.208461801921 0.0819449673948 0.0
-0.0485578562949 0.153862048267 0.0
-0.128101937859 -0.238472235907 0.0
-0.0872024207787 -0.00111198593217 0.0
0.233044286452 -0.0663042961038 0.0
-0.0446168007151 0.238380045908 0.0
-0.0445656280182 -0.0666051326049 0.0
-0.0577752045816 0.0212199463963 0.0
-0.0971328841955 -0.410052410885 0.0
-0.017679487796 0.207315958559 0.0
-0.0355221138949 -0.024817863859 0.0
-0.0336159710469 0.0401086765006 0.0
-0.0250776471144 0.208089641248 0.0
-0.0795053018548 0.0823744822507 0.0
-0.121539974564 0.0569233423768 0.0
-0.0368705133187 -0.212218910097 0.0
-0.030411445731 -0.00309832074127 0.0
0.543039514657 0.0274209283036 0.0
-0.00919721516572 0.0566093478704 0.0
-0.0827984302564 0.22442335469 0.0
-0.195406623048 -0.182801904403 0.0
-0.145049743508 0.0312934015246 0.0
0.000148385457296 0.000123495083026 0.0
-0.000671870698847 0.000764659503404 0.0
0.0709278450928 -0.348479459494 0.0
-0.0644788278136 0.269795937477 0.0
0.648806734555 0.00838348812019 0.0
-0.00880267789048 0.102506674614 0.0
-0.0158709238424 -0.0749735902194 0.0
-0.0351240507852 0.00106094626933 0.0
0.603973985568 -0.0308794056081 0.0
-0.0146347635298 0.165831963546 0.0
-0.00425057039933 -0.0112438886564 0.0
-0.015613889623 0.00347098175763 0.0
-0.0603493644959 -0.41853128366 0.0
-0.0111617321516 -0.00356000466274 0.0
0.359469204961 0.0645971858195 0.0
-0.00553244492557 0.0190388284259 0.0
0.162765672071 -0.166748508044 0.0
-0.0543726778877 0.254751684186 0.0
-0.0263443812197 -0.0346604033149 0.0
-0.0385549001354 0.0214746025393 0.0
-0.156890246868 -0.437372446604 0.0
0.0764388640434 0.155171647897 0.0
-0.052020150046 -0.0223135037121 0.0
-0.0363784046833 0.064810413091 0.0
0.010314681439 0.0739113264651 0.0
-0.0939576717586 0.193525511957 0.0
-0.144016386365 -0.103107420748 0.0
-0.133898485122 0.0925267634852 0.0
-0.146880964043 0.152587002528 0.0
-0.0789649930387 -0.0633557920533 0.0
-0.18622105632 -0.177262626235 0.0
-0.139574172454 -0.0641565936585 0.0
-0.072472319815 0.0449104896693 0.0
-0.110261609008 0.195928484639 0.0
-0.188302093803 -0.116970215394 0.0
-0.245135400139 -0.114704582226 0.0
-0.1845603444 -0.0102796152809 0.0
0.461180508514 -0.0985652044272 0.0
-0.0486289426563 0.228219127582 0.0
-0.00113758770363 -0.00156280072799 0.0
-0.00484710236701 0.0021588920395 0.0
-0.0017919139141 -0.00141736607773 0.0
-0.06467263931 -0.517928757405 0.0
-0.00258599528816 0.00501044302605 0.0
0.163754997028 0.121243774202 0.0
-0.0575426573577 0.208368104179 0.0
-0.120995587807 0.107538868198 0.0
-0.125361198916 0.0149528992209 0.0
0.34116447609 0.0223156740048 0.0
-0.0341867818792 0.182752166648 0.0
-0.0587543373094 -0.12409184116 0.0
-0.066471668402 0.00753082996559 0.0
-0.0723779425791 -0.225685443079 0.0
-0.0482768766442 0.237824371594 0.0
-0.0760345792125 -0.0579667802244 0.0
-0.0696327936833 0.0532610848777 0.0
-0.165812832762 -0.27121729509 0.0
-0.0965740113586 -0.0512212351791 0.0
0.121061231151 0.00628849800423 0.0
-0.063549512481 0.223791502485 0.0
-0.107440550523 -0.134335686671 0.0
-0.0953737521666 0.0236859949222 0.0
-0.0461671720295 -0.327943307553 0.0
-0.0162747647487 -0.00327386430769 0.0
0.491833738267 0.0359467499988 0.0
-0.00565757340323 0.0273677931218 0.0
0.113414458139 -0.295455344646 0.0
-0.0740730429645 0.258342074093 0.0
-0.00943919315405 -0.0106335976917 0.0
-0.0154779307855 0.0127687829804 0.0
0.0536621533219 0.158434385184 0.0
-0.0674984407108 0.111570602823 0.0
-0.241745150062 -0.0928300628346 0.0
-0.187482381971 0.0245005931116 0.0
-0.0602728750705 0.180931058152 0.0
-0.00413611031061 -0.260542668757 0.0
-0.0513958011708 0.244973475118 0.0
-0.0418558944768 -0.0383659011501 0.0
-0.0461500141209 0.0371204724895 0.0
-0.106440069083 0.0894265743291 0.0
-0.106070441124 -0.323124150011 0.0
0.280121780348 0.0789378994365 0.0
-0.0543351197682 -0.00923703365668 0.0
-0.0262983257368 0.0884081458592 0.0
-0.198667620237 -0.342433855787 0.0
-0.0920714418085 -0.0240569208716 0.0
-0.214369033624 0.0328858601224 0.0
-0.228078010294 0.00644767002405 0.0
-0.144027953122 0.0549246801858 0.0
-0.186423992 -0.365298734916 0.0
-0.0795330795467 -0.0332111426093 0.0
0.0259964419253 0.179665336348 0.0
-0.0567361226493 0.0815205030692 0.0
-0.160979684527 0.143963288817 0.0
-0.0184738421978 -0.12085499447 0.0
-0.0263856894047 -0.00100344773106 0.0
0.686565547291 0.0140468427974 0.0
-0.00546545136468 0.0552149972492 0.0
-0.107710409319 0.202012993172 0.0
-0.215738636551 -0.144714619194 0.0
-0.07896391965 -0.460371336362 0.0
-0.0140225953247 0.199088290083 0.0
-0.0196472215875 -0.0142027373102 0.0
-0.0197324306062 0.026092645349 0.0
0.371795256178 0.0555363447178 0.0
-0.0266039175093 0.126435904285 0.0
-0.0737573287703 -0.19943188904 0.0
-0.0608769442997 -0.00107090972202 0.0
-0.198206651637 0.0803242178708 0.0
0.0369389838832 0.147921010739 0.0
-0.0833708138921 0.136858996266 0.0
0.374768527989 -0.0323065045676 0.0
-0.031775606056 0.210798826603 0.0
-0.0310434620835 -0.0610861493022 0.0
-0.0489316079087 0.0121060318098 0.0
-0.20386874556 0.0598706817018 0.0
0.7040015705 -0.0126112968361 0.0
-0.00690870669769 0.124939361309 0.0
-0.00393215548967 -0.0147660319595 0.0
-0.0174473286972 0.00260788111902 0.0
-0.163473931438 0.115694111914 0.0
0.735735827727 -0.00817599577232 0.0
-0.00729911352148 0.102330426286 0.0
-0.00547753643447 -0.0289039017053 0.0
-0.0232386716428 0.00142395643795 0.0
-0.241344775933 -0.188795917794 0.0
-0.158021802418 -0.016217934944 0.0
-0.10446289901 0.17794504532 0.0
-0.130476854756 0.135798420191 0.0
-0.228910419749 -0.21484257259 0.0
-0.142377450034 -0.0390147183743 0.0
0.207449740609 -0.180642174626 0.0
-0.0601204189895 0.256074588368 0.0
-0.0133789633242 -0.0193689664752 0.0
-0.0247124556175 0.0139713843678 0.0
-0.0153700200876 -0.122716947234 0.0
-0.0601163704625 0.242452753612 0.0
-0.0923045765146 -0.0818953179663 0.0
-0.083451042698 0.0481210075716 0.0
-0.0330324148872 -0.450791356704 0.0
-0.00785777898298 -0.00698089460179 0.0
-0.0414797770031 0.213608094825 0.0
-0.0106219964681 0.0127525531896 0.0
-0.132421543061 -0.0105386497807 0.0
-0.221122611532 -0.217124533919 0.0
-0.137507588566 -0.00293242689424 0.0
-0.156774195934 -0.177333795271 0.0
-0.14435132481 0.101231277443 0.0
-0.19768832664 -0.274443843146 0.0
-0.110739905218 -0.0108667812145 0.0
-0.122490483998 0.182999803914 0.0
-0.170653630098 0.059346379183 0.0
-0.0045522035827 0.117034207909 0.0
-0.0653225030522 0.138488875636 0.0
-0.101425792828 0.167829141068 0.0
-0.12768188472 0.148422491443 0.0
-0.207685260268 -0.105463259277 0.0
-0.203979023493 -0.0838259364411 0.0
-0.178856449745 -0.0587570661055 0.0
0.663546693012 -0.0340577529127 0.0
-0.0169471744623 0.152546155467 0.0
-0.00134517673052 -0.00328238151837 0.0
-0.0080034039992 0.00173590632333 0.0
-0.00463247274491 -0.00134299557143 0.0
-0.0443378902947 -0.397956650803 0.0
-0.00204067492553 0.00864231013743 0.0
0.434446186708 0.0519594772182 0.0
0.0750857297898 0.0411854436585 0.0
-0.0736710113876 0.209444485478 0.0
-0.0212864606348 -0.185465001794 0.0
-0.0186753535186 -0.00194823461623 0.0
0.659842247514 0.0142005785355 0.0
-0.00436143882949 0.0333086812338 0.0
0.241197785344 0.0581837593503 0.0
-0.0465701163902 0.173420832187 0.0
-0.108965510821 -0.194014919757 0.0
-0.0833388090823 0.00399022864886 0.0
0.796305676317 0.00217270449529 0.0
-0.00372375103123 0.0729151962824 0.0
-0.00601045767281 -0.0325737984837 0.0
-0.0207713212857 0.00104668016523 0.0
-0.117596545143 -0.440821264594 0.0
-0.0487115479636 -0.0140719825854 0.0
0.162782699908 0.115807936145 0.0
-0.0303377440437 0.0726669490948 0.0
0.246067321745 0.0833349358914 0.0
-0.113291933003 -0.27172080482 0.0
-0.0374677154838 0.124737014989 0.0
-0.0714078630311 -0.00606039133691 0.0
-0.15450223512 -0.346092657261 0.0
0.160503849608 0.116660089342 0.0
-0.0726749730212 -0.0140568297451 0.0
-0.0449125105302 0.107522276972 0.0
-0.0753645241095 0.231918795877 0.0
-0.104481874945 0.0417185135941 0.0
-0.100355547461 -0.509906046765 0.0
-0.0170568938679 -0.00845235418922 0.0
0.126362551761 0.129332774329 0.0
-0.0126579327614 0.0261096702713 0.0
-0.168974797084 0.0249265504097 0.0
0.362424668955 -0.102644711952 0.0
-0.0421843430503 0.234761126163 0.0
-0.00968298279568 -0.0176463857821 0.0
-0.0227574477663 0.00911305574737 0.0
-0.180972179664 0.0952526576328 0.0
-0.223886241955 -0.0552547711594 0.0
-0.154860246632 0.0750055715498 0.0
0.412084636917 -0.000574174208876 0.0
-0.0268307378024 0.186235032751 0.0
-0.0363202595454 -0.0834967812966 0.0
-0.0540815998337 0.00861817877798 0.0
-0.000124444522888 0.000221365787423 0.0
-0.00137279945115 0.000823953782853 0.0
0.38334152205 -0.154308111919 0.0
-0.000172375615512 -0.000211246665187 0.0
-0.0684126601475 0.266392175987 0.0
-0.0507090520398 -0.48966981583 0.0
-0.000749181252539 0.00130067039027 0.0
0.212968845241 0.1142465707 0.0
-0.109865374653 0.0190730548528 0.0
-0.0685507006355 -0.0927824796965 0.0
-0.0740237910027 0.0244061628578 0.0
0.091295896873 0.0723663513392 0.0
-0.0744606937219 0.191880882641 0.0
-0.106052145671 0.0710524245675 0.0
-0.130242054391 0.174625982258 0.0
-0.139179666494 -0.407574369438 0.0
-0.0350303871297 -0.0108271353288 0.0
0.220915313079 0.0946804718741 0.0
-0.0195670000654 0.0531713063337 0.0
0.166013207334 -0.046878965598 0.0
-0.0521408923993 0.238226906672 0.0
-0.143996728769 -0.0829564686202 0.0
-0.118550415477 0.0742626212202 0.0
-0.180495456081 0.0652392769734 0.0
0.483133578643 0.0151851315356 0.0
-0.0209223761635 0.147725132855 0.0
-0.0355701607156 -0.10319001521 0.0
-0.0511478005798 0.00329008188786 0.0
0.111725804383 0.11111922794 0.0
-0.066925996002 0.153671420056 0.0
-0.219484922504 -0.0242384768809 0.0
-0.139692628188 -0.115462627709 0.0
-0.107811826517 0.00867152592283 0.0
-0.143134040148 -0.20806639816 0.0
-0.192518681811 0.00134563140489 0.0
-0.0749667031345 -0.00958723855306 0.0
-0.19755044227 0.0305697754492 0.0
0.0136599045566 -0.029935782734 0.0
-0.130073424137 -0.120744603334 0.0
-0.0732041504292 0.221497676484 0.0
-0.180867967018 -0.0490048789496 0.0
0.208608492484 0.0213699308487 0.0
-0.0507589615059 0.209455794418 0.0
-0.0855642459368 -0.138939409731 0.0
-0.0823704225576 0.0151074649263 0.0
-0.0973619770556 0.21161356674 0.0
-0.192580835503 -0.14716035539 0.0
0.0032468225284 0.186159515429 0.0
-0.0767306310095 0.0988651247409 0.0
-0.218441398767 -0.296413837734 0.0
-0.112609154548 -0.028294521531 0.0
0.801811176578 0.00794008719925 0.0
-0.00197602824834 0.05688975322 0.0
-0.00730653104743 -0.0503879499581 0.0
-0.0215094592264 0.000532512011308 0.0
-0.0691513786216 -0.079726911087 0.0
-0.0728532592968 0.0333253851302 0.0
-0.165462274486 0.122196047534 0.0
0.090929718251 -0.0946616927028 0.0
-0.0554277847434 0.246971133937 0.0
-0.22440642616 -0.0273298013015 0.0
-0.227320328752 0.00560332419317 0.0
-0.240048561342 -0.050766192348 0.0
-0.133732748565 0.040209164761 0.0
-0.119967018926 0.12878702444 0.0
-0.235112183508 -0.102631502687 0.0
-0.203720306333 -0.0197171166316 0.0
-0.0784240675823 -0.295702566783 0.0
-0.0391691737396 0.231352409012 0.0
-0.0576863730887 -0.0425353177686 0.0
-0.0561649389056 0.051358631735 0.0
-0.143664439303 -0.418035384939 0.0
0.0148827722812 0.186808479011 0.0
-0.0500258399902 -0.0273267917262 0.0
-0.0394369342586 0.0559767143558 0.0
-0.144275491219 0.0155718984385 0.0
0.237971533174 -0.0990763304391 0.0
-0.0453969911542 0.244860495817 0.0
-0.0312046629629 -0.0468037849489 0.0
-0.0460362381127 0.019535858043 0.0
0.44173333833 -0.0388609462468 0.0
-0.0257779705931 0.202091945689 0.0
-0.018303292626 -0.0411698800014 0.0
-0.037623940572 0.00918654721908 0.0
0.0298696226223 0.132324053499 0.0
-0.0887710028016 0.154381934031 0.0
-0.0991272949336 0.0530542814048 0.0
-0.214065915642 -0.162585471165 0.0
-0.156903631875 -0.0525876480808 0.0
-0.105349932985 0.12498612417 0.0
-0.142937307417 0.142645922659 0.0
0.790718922123 -0.00683462693699 0.0
-0.00383304158527 0.0916269323845 0.0
-0.00238260442174 -0.0140932067523 0.0
-0.0158424130123 0.00119206115922 0.0
-0.0675640802645 0.236218339569 0.0
-0.144850005714 0.161485744085 0.0
-0.0176136443812 -0.170486985396 0.0
-0.0128605361294 -0.000992153902988 0.0
0.709104003675 0.015654595239 0.0
-0.00194053634818 0.0217489774006 0.0
0.545021790272 -0.00719823438916 0.0
-0.0168711365621 0.159255064917 0.0
-0.0187769029983 -0.0544182791995 0.0
-0.0391549683346 0.00536385694651 0.0
-0.058078185521 0.160843917138 0.0
-0.0292299269668 0.170193171928 0.0
-0.0414883685556 0.224239730951 0.0
-0.0789523677627 0.0694226019141 0.0
-0.226963695945 -0.00361741382893 0.0
0.270804566461 -0.187239301929 0.0
-0.0707404544768 0.260037309638 0.0
-0.00407224064143 -0.005656705266 0.0
-0.00997469764587 0.00616638647394 0.0
0.526658369343 0.0240369733545 0.0
-0.0168087479221 0.118741074481 0.0
-0.0365633635347 -0.120590938216 0.0
-0.0466866771166 0.00103784955906 0.0
0.141996236253 0.0856617285809 0.0