# vtk DataFile Version 2.0
2D Simulation Python
ASCII
DATASET UNSTRUCTURED_GRID
FIELD FieldData 1
NODES 1 2 int
3798 7382

POINTS 3798 double
0.0 0.0 0.0
1.0 0.0 0.0
1.0 1.0 0.0
0.0 1.0 0.0
0.01886792452826637 0.0 0.0
0.03773584905653053 0.0 0.0
0.05660377358479097 0.0 0.0
0.07547169811305962 0.0 0.0
0.09433962264133271 0.0 0.0
0.1132075471696058 0.0 0.0
0.1320754716978688 0.0 0.0
0.1509433962261159 0.0 0.0
0.1698113207543628 0.0 0.0
0.1886792452826097 0.0 0.0
0.2075471698108566 0.0 0.0
0.2264150943391035 0.0 0.0
0.2452830188673504 0.0 0.0
0.2641509433955972 0.0 0.0
0.2830188679238441 0.0 0.0
0.301886792452091 0.0 0.0
0.3207547169803379 0.0 0.0
0.3396226415085848 0.0 0.0
0.3584905660368317 0.0 0.0
0.3773584905650785 0.0 0.0
0.3962264150933255 0.0 0.0
0.4150943396215723 0.0 0.0
0.4339622641498192 0.0 0.0
0.4528301886780661 0.0 0.0
0.4716981132063129 0.0 0.0
0.4905660377345599 0.0 0.0
0.5094339622628591 0.0 0.0
0.5283018867912108 0.0 0.0
0.5471698113195625 0.0 0.0
0.5660377358479143 0.0 0.0
0.5849056603762659 0.0 0.0
0.6037735849046176 0.0 0.0
0.6226415094329693 0.0 0.0
0.6415094339613208 0.0 0.0
0.6603773584896723 0.0 0.0
0.6792452830180238 0.0 0.0
0.6981132075463754 0.0 0.0
0.7169811320747269 0.0 0.0
0.7358490566030784 0.0 0.0
0.7547169811314299 0.0 0.0
0.7735849056597816 0.0 0.0
0.7924528301881331 0.0 0.0
0.8113207547164847 0.0 0.0
0.8301886792448361 0.0 0.0
0.8490566037731877 0.0 0.0
0.8679245283015392 0.0 0.0
0.8867924528298908 0.0 0.0
0.9056603773582425 0.0 0.0
0.9245283018865939 0.0 0.0
0.9433962264149454 0.0 0.0
0.962264150943297 0.0 0.0
0.9811320754716486 0.0 0.0
1.0 0.01886792452826637 0.0
1.0 0.03773584905653053 0.0
1.0 0.05660377358479097 0.0
1.0 0.07547169811305962 0.0
1.0 0.09433962264133271 0.0
1.0 0.1132075471696058 0.0
1.0 0.1320754716978688 0.0
1.0 0.1509433962261159 0.0
1.0 0.1698113207543628 0.0
1.0 0.1886792452826097 0.0
1.0 0.2075471698108566 0.0
1.0 0.2264150943391035 0.0
1.0 0.2452830188673504 0.0
1.0 0.2641509433955972 0.0
1.0 0.2830188679238441 0.0
1.0 0.301886792452091 0.0
1.0 0.3207547169803379 0.0
1.0 0.3396226415085848 0.0
1.0 0.3584905660368317 0.0
1.0 0.3773584905650785 0.0
1.0 0.3962264150933255 0.0
1.0 0.4150943396215723 0.0
1.0 0.4339622641498192 0.0
1.0 0.4528301886780661 0.0
1.0 0.4716981132063129 0.0
1.0 0.4905660377345599 0.0
1.0 0.5094339622628591 0.0
1.0 0.5283018867912108 0.0
1.0 0.5471698113195625 0.0
1.0 0.5660377358479143 0.0
1.0 0.5849056603762659 0.0
1.0 0.6037735849046176 0.0
1.0 0.6226415094329693 0.0
1.0 0.6415094339613208 0.0
1.0 0.6603773584896723 0.0
1.0 0.6792452830180238 0.0
1.0 0.6981132075463754 0.0
1.0 0.7169811320747269 0.0
1.0 0.7358490566030784 0.0
1.0 0.7547169811314299 0.0
1.0 0.7735849056597816 0.0
1.0 0.7924528301881331 0.0
1.0 0.8113207547164847 0.0
1.0 0.8301886792448361 0.0
1.0 0.8490566037731877 0.0
1.0 0.8679245283015392 0.0
1.0 0.8867924528298908 0.0
1.0 0.9056603773582425 0.0
1.0 0.9245283018865939 0.0
1.0 0.9433962264149454 0.0
1.0 0.962264150943297 0.0
1.0 0.9811320754716486 0.0
0.9811320754716195 1.0 0.0
0.9622641509432391 1.0 0.0
0.9433962264148587 1.0 0.0
0.9245283018864782 1.0 0.0
0.9056603773580978 1.0 0.0
0.8867924528297173 1.0 0.0
0.8679245283014174 1.0 0.0
0.8490566037732444 1.0 0.0
0.8301886792450734 1.0 0.0
0.8113207547169025 1.0 0.0
0.7924528301887315 1.0 0.0
0.7735849056605606 1.0 0.0
0.7547169811323896 1.0 0.0
0.7358490566042186 1.0 0.0
0.7169811320760476 1.0 0.0
0.6981132075478766 1.0 0.0
0.6792452830197057 1.0 0.0
0.6603773584915346 1.0 0.0
0.6415094339633636 1.0 0.0
0.6226415094351925 1.0 0.0
0.6037735849070215 1.0 0.0
0.5849056603788504 1.0 0.0
0.5660377358506794 1.0 0.0
0.5471698113225083 1.0 0.0
0.5283018867943372 1.0 0.0
0.5094339622661662 1.0 0.0
0.4905660377378905 1.0 0.0
0.4716981132095099 1.0 0.0
0.4528301886811295 1.0 0.0
0.4339622641527489 1.0 0.0
0.4150943396243684 1.0 0.0
0.3962264150959879 1.0 0.0
0.3773584905676074 1.0 0.0
0.358490566039227 1.0 0.0
0.3396226415108468 1.0 0.0
0.3207547169824663 1.0 0.0
0.3018867924540859 1.0 0.0
0.2830188679257056 1.0 0.0
0.2641509433973251 1.0 0.0
0.2452830188689448 1.0 0.0
0.2264150943405645 1.0 0.0
0.2075471698121841 1.0 0.0
0.1886792452838036 1.0 0.0
0.1698113207554234 1.0 0.0
0.150943396227043 1.0 0.0
0.1320754716986625 1.0 0.0
0.1132075471702823 1.0 0.0
0.09433962264190188 1.0 0.0
0.0754716981135215 1.0 0.0
0.05660377358514113 1.0 0.0
0.03773584905676075 1.0 0.0
0.01886792452838049 1.0 0.0
0.0 0.9811320754716195 0.0
0.0 0.9622641509432391 0.0
0.0 0.9433962264148587 0.0
0.0 0.9245283018864782 0.0
0.0 0.9056603773580978 0.0
0.0 0.8867924528297173 0.0
0.0 0.8679245283014174 0.0
0.0 0.8490566037732444 0.0
0.0 0.8301886792450734 0.0
0.0 0.8113207547169025 0.0
0.0 0.7924528301887315 0.0
0.0 0.7735849056605606 0.0
0.0 0.7547169811323896 0.0
0.0 0.7358490566042186 0.0
0.0 0.7169811320760476 0.0
0.0 0.6981132075478766 0.0
0.0 0.6792452830197057 0.0
0.0 0.6603773584915346 0.0
0.0 0.6415094339633636 0.0
0.0 0.6226415094351925 0.0
0.0 0.6037735849070215 0.0
0.0 0.5849056603788504 0.0
0.0 0.5660377358506794 0.0
0.0 0.5471698113225083 0.0
0.0 0.5283018867943372 0.0
0.0 0.5094339622661662 0.0
0.0 0.4905660377378905 0.0
0.0 0.4716981132095099 0.0
0.0 0.4528301886811295 0.0
0.0 0.4339622641527489 0.0
0.0 0.4150943396243684 0.0
0.0 0.3962264150959879 0.0
0.0 0.3773584905676074 0.0
0.0 0.358490566039227 0.0
0.0 0.3396226415108468 0.0
0.0 0.3207547169824663 0.0
0.0 0.3018867924540859 0.0
0.0 0.2830188679257056 0.0
0.0 0.2641509433973251 0.0
0.0 0.2452830188689448 0.0
0.0 0.2264150943405645 0.0
0.0 0.2075471698121841 0.0
0.0 0.1886792452838036 0.0
0.0 0.1698113207554234 0.0
0.0 0.150943396227043 0.0
0.0 0.1320754716986625 0.0
0.0 0.1132075471702823 0.0
0.0 0.09433962264190188 0.0
0.0 0.0754716981135215 0.0
0.0 0.05660377358514113 0.0
0.0 0.03773584905676075 0.0
0.0 0.01886792452838049 0.0
0.49961422419268997 0.4984293794066726 0.0
0.7093511500970902 0.706792936500378 0.0
0.29287482782244045 0.7110496278611782 0.0
0.7065208514432915 0.2921137893028175 0.0
0.2917146567058879 0.2951459957249887 0.0
0.5010883512796402 0.783530677658598 0.0
0.2164159732426224 0.5012876322837192 0.0
0.7820505253934122 0.4994927647991782 0.0
0.4969563419356505 0.21663804071479492 0.0
0.8269192007901067 0.8287013252031155 0.0
0.1712682973217082 0.8268730922835856 0.0
0.8299941553097447 0.17180608262880254 0.0
0.17180615988223974 0.17000622072452293 0.0
0.5640959313975822 0.6420224840910225 0.0
0.36076803388570655 0.5671667288006801 0.0
0.641160245161879 0.4320186669377829 0.0
0.4354935082651592 0.36378759861759746 0.0
0.6410454186381067 0.8479832937118897 0.0
0.1518368310809157 0.6410829539811169 0.0
0.8477907051244511 0.3598243790179788 0.0
0.35938579904680457 0.15130729784326102 0.0
0.8497305928919907 0.6399401683101269 0.0
0.3617952267412937 0.8474454291453152 0.0
0.6436051449793575 0.15189469658234833 0.0
0.15079737625026685 0.3588783576988489 0.0
0.6832039587940572 0.5823618751624478 0.0
0.4454396775914624 0.6627381531764 0.0
0.33424594078221964 0.4385872006022409 0.0
0.5773189844856303 0.3195812160927133 0.0
0.5368082180804761 0.8869865896668006 0.0
0.11301341973883329 0.5368082072162796 0.0
0.8863497125425446 0.46278650800142523 0.0
0.46231798559604276 0.1137357048419064 0.0
0.735504344602733 0.8878298811845817 0.0
0.11217246241749894 0.7355045289688809 0.0
0.8876386118329569 0.26464529586215935 0.0
0.26447675721717134 0.11218714573944835 0.0
0.8918893682153743 0.7430319146751548 0.0
0.7378676821853629 0.10938784471235846 0.0
0.2618554236513495 0.8907466135047526 0.0
0.10927139946373736 0.2618885660485004 0.0
0.6036356850091371 0.740958324467786 0.0
0.2594197395873493 0.6024781400358834 0.0
0.7471835282093033 0.3970113006814754 0.0
0.39635295506120277 0.25856270415268773 0.0
0.5973835830959042 0.5282120591728078 0.0
0.5269880475515504 0.40324375384926064 0.0
0.900344051349824 0.09737126935472232 0.0
0.09737116846728401 0.09965601878423913 0.0
0.9027736024298996 0.9004379740924425 0.0
0.09965486244215357 0.9026299600545967 0.0
0.3830054844266893 0.7484876862569074 0.0
0.25074672726321157 0.3828059459383084 0.0
0.9036934196956306 0.5634343341860331 0.0
0.436167023944368 0.903809418557912 0.0
0.5634650142808684 0.09627038765249357 0.0
0.09611428176536896 0.43622888244072316 0.0
0.7383691909253696 0.7977530090605311 0.0
0.20213608094646243 0.7381864461382426 0.0
0.7965379729869333 0.25833485688790847 0.0
0.25825176979143294 0.20343822649683996 0.0
0.8016496201203362 0.7232057683389532 0.0
0.27776554876540255 0.7985644202275013 0.0
0.7230025466734626 0.19888476423555862 0.0
0.20134253349952064 0.2778412830843111 0.0
0.48914355287031674 0.5909586444150075 0.0
0.4113298235007088 0.49483643887222295 0.0
0.7553604068177817 0.6323161440656005 0.0
0.6323326401346647 0.2446343261447706 0.0
0.3558016573651024 0.6535168196958461 0.0
0.6947272998992697 0.49553252027219197 0.0
0.34695271761644664 0.35520182412877976 0.0
0.49374473330545476 0.3082796821038452 0.0
0.8187154539118972 0.9148861354006228 0.0
0.08511383208187207 0.8187154148724425 0.0
0.9150328940734902 0.18133025458140606 0.0
0.18128457425270267 0.0851129709589244 0.0
0.8187403987114168 0.08420346742597412 0.0
0.9157746719419576 0.8186373542270347 0.0
0.08420340483892619 0.18125955209024192 0.0
0.18126035834340148 0.9157847355643594 0.0
0.6491759294498078 0.6582605894876106 0.0
0.518075563238964 0.700155561243168 0.0
0.2994944160935228 0.5182519107636043 0.0
0.6529572976260253 0.35254842454839763 0.0
0.6097401473872117 0.9217208439447089 0.0
0.07827850601264716 0.6097398708442259 0.0
0.9217267277120186 0.3902548071573767 0.0
0.39024121399465406 0.07825838690395835 0.0
0.9257398577009572 0.6657069734842804 0.0
0.6657516430505073 0.07518432263878908 0.0
0.3341866530930919 0.9246109018771522 0.0
0.07542270790545244 0.3342243925275289 0.0
0.8225798016625723 0.5644120390192462 0.0
0.43501894509773303 0.8272239480204406 0.0
0.5644015723185061 0.17743228884395235 0.0
0.1728552698143025 0.4351788286843611 0.0
0.5668992511560398 0.812632221934239 0.0
[...]
POINT_DATA 3798
VECTORS vector double
0.0 0.0 0.0
0.0 0.0 0.0
0.0 0.0 0.0
0.0 0.0 0.0
0.0 0.0 0.0
0.0 0.0 0.0
0.0 0.0 0.0
0.0 0.0 0.0
0.0 0.0 0.0
0.0 0.0 0.0
0.0 0.0 0.0
0.0 0.0 0.0
0.0 0.0 0.0
0.0 0.0 0.0
0.0 0.0 0.0
0.0 0.0 0.0
0.0 0.0 0.0
0.0 0.0 0.0
0.0 0.0 0.0
0.0 0.0 0.0
0.0 0.0 0.0
0.0 0.0 0.0
0.0 0.0 0.0
0.0 0.0 0.0
0.0 0.0 0.0
0.0 0.0 0.0
0.0 0.0 0.0
0.0 0.0 0.0
0.0 0.0 0.0
0.0 0.0 0.0
0.0 0.0 0.0
0.0 0.0 0.0
0.0 0.0 0.0
0.0 0.0 0.0
0.0 0.0 0.0
0.0 0.0 0.0
0.0 0.0 0.0
0.0 0.0 0.0
0.0 0.0 0.0
0.0 0.0 0.0
0.0 0.0 0.0
0.0 0.0 0.0
0.0 0.0 0.0
0.0 0.0 0.0
0.0 0.0 0.0
0.0 0.0 0.0
0.0 0.0 0.0
0.0 0.0 0.0
0.0 0.0 0.0
0.0 0.0 0.0
0.0 0.0 0.0
0.0 0.0 0.0
0.0 0.0 0.0
0.0 0.0 0.0
0.0 0.0 0.0
0.0 0.0 0.0
0.0 0.0 0.0
0.0 0.0 0.0
0.0 0.0 0.0
0.0 0.0 0.0
0.0 0.0 0.0
0.0 0.0 0.0
0.0 0.0 0.0
0.0 0.0 0.0
0.0 0.0 0.0
0.0 0.0 0.0
0.0 0.0 0.0
0.0 0.0 0.0
0.0 0.0 0.0
0.0 0.0 0.0
0.0 0.0 0.0
0.0 0.0 0.0
0.0 0.0 0.0
0.0 0.0 0.0
0.0 0.0 0.0
0.0 0.0 0.0
0.0 0.0 0.0
0.0 0.0 0.0
0.0 0.0 0.0
0.0 0.0 0.0
0.0 0.0 0.0
0.0 0.0 0.0
0.0 0.0 0.0
0.0 0.0 0.0
0.0 0.0 0.0
0.0 0.0 0.0
0.0 0.0 0.0
0.0 0.0 0.0
0.0 0.0 0.0
0.0 0.0 0.0
0.0 0.0 0.0
0.0 0.0 0.0
0.0 0.0 0.0
0.0 0.0 0.0
0.0 0.0 0.0
0.0 0.0 0.0
0.0 0.0 0.0
0.0 0.0 0.0
0.0 0.0 0.0
0.0 0.0 0.0
0.0 0.0 0.0
0.0 0.0 0.0
0.0 0.0 0.0
0.0 0.0 0.0
0.0 0.0 0.0
0.0 0.0 0.0
0.0 0.0 0.0
0.0 0.0 0.0
1.0 0.0 0.0
1.0 0.0 0.0
1.0 0.0 0.0
1.0 0.0 0.0
1.0 0.0 0.0
1.0 0.0 0.0
1.0 0.0 0.0
1.0 0.0 0.0
1.0 0.0 0.0
1.0 0.0 0.0
1.0 0.0 0.0
1.0 0.0 0.0
1.0 0.0 0.0
1.0 0.0 0.0
1.0 0.0 0.0
1.0 0.0 0.0
1.0 0.0 0.0
1.0 0.0 0.0
1.0 0.0 0.0
1.0 0.0 0.0
1.0 0.0 0.0
1.0 0.0 0.0
1.0 0.0 0.0
1.0 0.0 0.0
1.0 0.0 0.0
1.0 0.0 0.0
1.0 0.0 0.0
1.0 0.0 0.0
1.0 0.0 0.0
1.0 0.0 0.0
1.0 0.0 0.0
1.0 0.0 0.0
1.0 0.0 0.0
1.0 0.0 0.0
1.0 0.0 0.0
1.0 0.0 0.0
1.0 0.0 0.0
1.0 0.0 0.0
1.0 0.0 0.0
1.0 0.0 0.0
1.0 0.0 0.0
1.0 0.0 0.0
1.0 0.0 0.0
1.0 0.0 0.0
1.0 0.0 0.0
1.0 0.0 0.0
1.0 0.0 0.0
1.0 0.0 0.0
1.0 0.0 0.0
1.0 0.0 0.0
1.0 0.0 0.0
1.0 0.0 0.0
0.0 0.0 0.0
0.0 0.0 0.0
0.0 0.0 0.0
0.0 0.0 0.0
0.0 0.0 0.0
0.0 0.0 0.0
0.0 0.0 0.0
0.0 0.0 0.0
0.0 0.0 0.0
0.0 0.0 0.0
0.0 0.0 0.0
0.0 0.0 0.0
0.0 0.0 0.0
0.0 0.0 0.0
0.0 0.0 0.0
0.0 0.0 0.0
0.0 0.0 0.0
0.0 0.0 0.0
0.0 0.0 0.0
0.0 0.0 0.0
0.0 0.0 0.0
0.0 0.0 0.0
0.0 0.0 0.0
0.0 0.0 0.0
0.0 0.0 0.0
0.0 0.0 0.0
0.0 0.0 0.0
0.0 0.0 0.0
0.0 0.0 0.0
0.0 0.0 0.0
0.0 0.0 0.0
0.0 0.0 0.0
0.0 0.0 0.0
0.0 0.0 0.0
0.0 0.0 0.0
0.0 0.0 0.0
0.0 0.0 0.0
0.0 0.0 0.0
0.0 0.0 0.0
0.0 0.0 0.0
0.0 0.0 0.0
0.0 0.0 0.0
0.0 0.0 0.0
0.0 0.0 0.0
0.0 0.0 0.0
0.0 0.0 0.0
0.0 0.0 0.0
0.0 0.0 0.0
0.0 0.0 0.0
0.0 0.0 0.0
0.0 0.0 0.0
0.0 0.0 0.0
-0.205152304082 0.00655837190997 0.0
-0.134791107811 -0.226190003155 0.0
-0.12104776556 0.230084562367 0.0
-0.0961731946189 -0.065955835845 0.0
-0.0944126164127 0.066072305766 0.0
0.0464705757351 0.0158805753561 0.0
-0.104037310502 0.180489025193 0.0
-0.116082963316 -0.186853757441 0.0
-0.108684004109 0.000166650925898 0.0
-0.049912786199 -0.321191704606 0.0
-0.0636606064905 0.31031155794 0.0
-0.0253390732716 -0.0243518250637 0.0
-0.0263406194696 0.0244492369249 0.0
-0.176948747211 -0.0593230706514 0.0
-0.181485401137 0.144610574072 0.0
-0.168465031711 -0.0972582458549 0.0
-0.159811184444 0.0366553144952 0.0
0.210439444823 -0.0758929114541 0.0
-0.0827632303586 0.263612833915 0.0
-0.0467325862303 -0.0919881782431 0.0
-0.0681717415782 0.0161414048888 0.0
-0.0944426533784 -0.28442129775 0.0
0.182788933934 0.0900384734924 0.0
-0.0667779480667 -0.0169276214745 0.0
-0.0433501421394 0.0894655853745 0.0
-0.181709215221 -0.180374418085 0.0
-0.155708092883 0.0747874789013 0.0
-0.154019256709 0.113396955482 0.0
-0.143453010617 -0.0341869739803 0.0
0.40739923417 -0.00758741389215 0.0
-0.041559272858 0.166295927182 0.0
-0.0381183661567 -0.12863632227 0.0
-0.0645134457557 0.00254454159829 0.0
0.275887380721 -0.107735919665 0.0
-0.0678175558382 0.305682609571 0.0
-0.018949110119 -0.0408674710681 0.0
-0.0377097668954 0.0123274448964 0.0
-0.0769961106685 -0.344761802857 0.0
-0.034091993693 -0.0118184492903 0.0
0.239282029835 0.117544224836 0.0
-0.0180180120023 0.0393866352034 0.0
-0.0649136865401 -0.0921171006342 0.0
-0.141747329524 0.228280141116 0.0
-0.108460094796 -0.121309475941 0.0
-0.114376285152 0.031812054067 0.0
-0.201318320891 -0.0874579171985 0.0
-0.180075634412 -0.0153569917261 0.0
-0.00507484291362 -0.0053689821635 0.0
-0.00615585340065 0.00640986834616 0.0
-0.0244857299475 -0.34968375858 0.0
-0.0400867555862 0.321851752559 0.0
-0.0551713808809 0.131023696649 0.0
-0.0984680627225 0.11067467132 0.0
-0.0397515864011 -0.176176033981 0.0
0.469555724205 0.0196859884425 0.0
-0.054798214472 -0.00443183546136 0.0
-0.0253110285606 0.0989896286491 0.0
-0.0215482692221 -0.22298550724 0.0
-0.107689599177 0.306125544826 0.0
-0.0519424634498 -0.0550189948473 0.0
-0.0576906633888 0.0365641550376 0.0
-0.124324923268 -0.323451779568 0.0
-0.0209662173569 0.21197036352 0.0
-0.0626183272191 -0.0349505561375 0.0
-0.0536948457819 0.0624202533149 0.0
-0.199514384641 0.0223294827928 0.0
-0.191010759902 0.0824500959831 0.0
-0.153570366745 -0.258399948955 0.0
-0.103241949386 -0.0355472622574 0.0
-0.158243021589 0.167721730122 0.0
-0.16477678709 -0.153931382782 0.0
-0.133000359265 0.0751149413744 0.0
-0.145151945555 0.0029757195735 0.0
0.257293894748 -0.147778503891 0.0
-0.0693421022148 0.33999435347 0.0
-0.00758156850426 -0.0153932711716 0.0
-0.0158627464863 0.00770961070142 0.0
-0.0142475203355 -0.00725693500078 0.0
-0.0755978577985 -0.378277407415 0.0
-0.00842168205791 0.0156272514657 0.0
0.223635707435 0.157494125128 0.0
-0.167610730461 -0.157794899103 0.0
-0.116398035879 -0.00398639213078 0.0
-0.152902035079 0.167053356422 0.0
-0.136268439602 -0.0736086535214 0.0
0.558037636806 -0.0199046919214 0.0
-0.0285223300744 0.169673616743 0.0
-0.015946624195 -0.0671620263101 0.0
-0.0432994441415 0.00349552078057 0.0
-0.0360001884789 -0.220013848924 0.0
-0.0342732321651 -0.0056399924217 0.0
0.512129078429 0.0394609981266 0.0
-0.0121474497 0.047515963826 0.0
-0.102301708468 -0.234510529308 0.0
0.159230971352 0.0543275334377 0.0
-0.0884868764256 -0.0103679579964 0.0
-0.0654595330578 0.136147081181 0.0
0.121732232807 -0.0366922294509 0.0
-0.0954572822757 0.222567444 0.0
-0.0744932678448 -0.138978204895 0.0
-0.093379557873 0.0116776800531 0.0
-0.184243155295 0.0375324070665 0.0
-0.0772212257221 -0.0909979546451 0.0
-0.0840782867374 0.0351887627681 0.0
-0.0101505994265 -0.148335819486 0.0
-0.124765817112 0.275202464015 0.0
-0.192714261404 -0.0553838051685 0.0
0.54722281172 -0.0314873585861 0.0
-0.029802575162 0.204113301413 0.0
-0.0107834980805 -0.0419274367375 0.0
-0.0343209295907 0.00459365261534 0.0
-0.149830635109 -0.218477436895 0.0
-0.118787664459 -0.018945676402 0.0
-0.19098586383 0.090955776842 0.0
-0.0727436457534 0.0699566658236 0.0
-0.123473111453 0.143339483604 0.0
-0.196485375627 -0.11355805525 0.0
-0.167558005978 -0.0534527342075 0.0
-0.164104509683 0.0709527748359 0.0
-0.205241903929 -0.0501966334155 0.0
-0.203033485321 0.0536962759144 0.0
0.631407223688 0.00109632975784 0.0
-0.0149796220284 0.0959132820902 0.0
-0.0161085527129 -0.105802699432 0.0
-0.0429766479157 -0.000512449649565 0.0
0.230892280455 0.0160671697038 0.0
-0.0636820061312 0.164402703922 0.0
-0.0763870359639 -0.183203234898 0.0
-0.0852781256792 -0.000606894394947 0.0
0.148340745718 -0.129934593603 0.0
-0.0928610747177 0.302654652296 0.0
-0.0396903435723 -0.0658374145264 0.0
-0.0576594385509 0.0216857573849 0.0
-0.10474535805 -0.358394203884 0.0
0.0166210523622 0.22622354153 0.0
-0.0394424312843 -0.0247831400076 0.0
-0.0320083892624 0.0403446039744 0.0
-0.061154729921 0.186304042279 0.0
-0.0797867663516 0.0829391056667 0.0
-0.117687147698 0.0538033880218 0.0
-0.0182323602136 -0.150061778021 0.0
-0.0327329831877 -0.00344777985183 0.0
0.637187716448 0.0137277197886 0.0
-0.00942885184498 0.0535929281828 0.0
-0.148705407229 0.222787692293 0.0
-0.131386887107 -0.153012190903 0.0
-0.135599535724 0.0264137493407 0.0
-0.000899448604712 -0.00154949396521 0.0
-0.00186086642375 0.0029217998601 0.0
-0.00380624953552 -0.325884043916 0.0
-0.0244064481599 0.318256794392 0.0
0.667584225757 -0.00422186822781 0.0
-0.0137290733566 0.111925722472 0.0
-0.0107615472416 -0.0711559699415 0.0
-0.0364411083147 0.00084298019901 0.0
0.540363789417 -0.0401824452213 0.0
-0.0265940422693 0.235921289821 0.0
-0.00538948695033 -0.0179822690997 0.0
-0.0180834302323 0.00383305812106 0.0
-0.0360838453459 -0.269610522506 0.0
-0.0151519117258 -0.00373078655107 0.0
0.499131469001 0.0556556591986 0.0
-0.00508530957902 0.0178010995026 0.0
0.0540907917239 -0.217537496085 0.0
-0.0940328188113 0.336023178097 0.0
-0.0282233519587 -0.038086321252 0.0
-0.0381895845976 0.022428257011 0.0
-0.102743436342 -0.327046081856 0.0
0.151699390919 0.134054376223 0.0
-0.0546473626878 -0.0203936791545 0.0
-0.0352704988128 0.0642702439931 0.0
-0.0423272678924 -0.0291892296162 0.0
-0.134704230231 0.2007181235 0.0
-0.111928768762 -0.0893255755821 0.0
-0.175940609051 0.00170560382795 0.0
-0.175573821696 0.130357742112 0.0
-0.121881513315 -0.155336416185 0.0
-0.166668253732 -0.216831574865 0.0
-0.117723039222 -0.0567674052214 0.0
-0.12311889219 -0.0601002599138 0.0
-0.160662379027 0.188721476598 0.0
-0.139419334989 -0.103928739279 0.0
-0.190089277259 -0.137420145671 0.0
-0.159731897791 -0.0172154192634 0.0
0.358005659561 -0.122084300991 0.0
-0.0569355824831 0.322737186957 0.0
-0.00227040906893 -0.00523448304937 0.0
-0.00622687166658 0.00360338515671 0.0
-0.00492564998542 -0.00269471371197 0.0
-0.0598585110808 -0.369923137408 0.0
-0.00292265835713 0.00601885332737 0.0
0.284901263038 0.130521051996 0.0
-0.119368413124 0.175659199208 0.0
-0.126684242371 0.102871451644 0.0
-0.118006584512 0.0133356283814 0.0
0.330087920216 -0.0310563739002 0.0
-0.0582886487542 0.211515222592 0.0
-0.0409054851328 -0.10917967214 0.0
-0.066428878047 0.00734647633294 0.0
-0.109530348336 -0.268110292856 0.0
-0.0966216370273 0.260099485714 0.0
-0.0699615539755 -0.0528405749622 0.0
-0.0677234183216 0.0539745529066 0.0
-0.144881601016 -0.276540288718 0.0
-0.0879495781471 -0.0452776657436 0.0
0.063453887833 -0.0852450583086 0.0
-0.113439381178 0.255795305365 0.0
-0.0783504405237 -0.114459467452 0.0
-0.0921469245445 0.0230932371792 0.0
-0.0240808855337 -0.210842355402 0.0
-0.0193791805984 -0.00331327394633 0.0
0.61287466074 0.0272280628332 0.0
-0.00519655983688 0.0252380141585 0.0
0.0065207567535 -0.309360480688 0.0
-0.0689810615438 0.343442881455 0.0
-0.0132538393921 -0.0147427284789 0.0
-0.0158712677495 0.0137621429204 0.0
0.0614953876464 0.105110589129 0.0
-0.0722986365356 0.113790544151 0.0
-0.185168483318 -0.107269214488 0.0
-0.169247525837 0.011124541907 0.0
-0.1208297525 0.119425009853 0.0
-0.0713710978321 -0.292739574127 0.0
-0.0819012496174 0.29374513232 0.0
-0.0433257283629 -0.0383084699191 0.0
-0.0445424031853 0.0379977461298 0.0
-0.107787249599 0.0877894322057 0.0
-0.0565472744985 -0.226728998962 0.0
0.381409858612 0.0429961923714 0.0
-0.0566364006472 -0.00830325241961 0.0
-0.027703258161 0.0875505188851 0.0
-0.123456002166 -0.26885665572 0.0
-0.0882276822726 -0.0209576788322 0.0
-0.195402094725 0.000868919046913 0.0
-0.20468007119 -0.0391139551319 0.0
-0.137824345529 0.0482086939074 0.0
-0.129866327272 -0.30324543474 0.0
-0.0771448656843 -0.0294095452614 0.0
0.0426512729542 0.151554963937 0.0
-0.0567235557947 0.0822383495017 0.0
-0.193185641685 0.102817478008 0.0
-0.0100051457687 -0.0941711167874 0.0
-0.0275355334801 -0.00183103991021 0.0
0.741607254515 0.00672764039397 0.0
-0.0060851002617 0.0532957658894 0.0
-0.167494994193 0.182261597499 0.0
-0.154125261374 -0.130846938784 0.0
-0.0917531604485 -0.381228277357 0.0
0.0517341213765 0.224963425055 0.0
-0.0247358114462 -0.015685694354 0.0
-0.0186426979954 0.0262390900802 0.0
0.429277132038 0.0141790399646 0.0
-0.0345887868005 0.132770600883 0.0
-0.0430714884786 -0.154746090936 0.0
-0.0619806441202 -0.000806778824152 0.0
-0.198691322165 0.041512043898 0.0
0.0154996990075 0.0762539361549 0.0
-0.0954502911632 0.139894084585 0.0
0.311967179604 -0.0771366230411 0.0
-0.0656492647922 0.26919863891 0.0
-0.0272002774838 -0.0631649454458 0.0
-0.049712884155 0.0122085472543 0.0
-0.208659587616 -0.00322306053946 0.0
0.665304766875 -0.0165457392516 0.0
-0.0151163774532 0.169522371675 0.0
-0.00441831754231 -0.0216726764728 0.0
-0.0191271725002 0.00239778921978 0.0
-0.174238092574 0.0934753574492 0.0
0.718933365051 -0.0130283682299 0.0
-0.0136165559756 0.124767176315 0.0
-0.00477003661237 -0.0351017624129 0.0
-0.0240117697297 0.000590283144954 0.0
-0.170631776838 -0.181830329048 0.0
-0.13963784035 -0.0173131673518 0.0
-0.166889689273 0.121661344442 0.0
-0.180343898033 0.0590294394091 0.0
-0.169489338826 -0.21632551315 0.0
-0.124465513516 -0.0352968976394 0.0
0.085587683319 -0.22107974734 0.0
-0.0864604317716 0.350380992582 0.0
-0.0164276501312 -0.0244092098823 0.0
-0.0245586653042 0.0149710899657 0.0
-0.0769519937021 -0.201659487247 0.0
-0.123734851541 0.269417725581 0.0
-0.0778347673106 -0.0730891742687 0.0
-0.0806974001763 0.0482363972894 0.0
-0.074961149359 -0.387937908927 0.0
-0.0123736664659 -0.00941988130119 0.0
0.022668558057 0.25699492467 0.0
-0.0105420309157 0.0134840013318 0.0
-0.160821181635 -0.104848431817 0.0
-0.145667644359 -0.185448246689 0.0
-0.125879779979 -0.00371624509858 0.0
-0.10546561441 -0.145723064474 0.0
-0.149444391076 0.0905563817938 0.0
-0.121098187388 -0.216716635201 0.0
-0.10438149738 -0.00950663370242 0.0
-0.179698726725 0.143944822821 0.0
-0.194336842675 -0.0256815420043 0.0
-0.0547823506734 0.0223049592935 0.0
-0.122784624495 0.0503507290837 0.0
-0.127892177194 0.16970848602 0.0
-0.15045227889 0.141220535438 0.0
-0.184705807002 -0.159988734662 0.0
-0.15796957888 -0.0802946077113 0.0
-0.146205320613 -0.055731978782 0.0
0.585927986071 -0.0444545161691 0.0
-0.0254302840182 0.222970256886 0.0
-0.00217023539496 -0.00835859493978 0.0
-0.0042929662585 0.00243794122608 0.0
-0.00532666415822 -0.00145638823896 0.0
-0.0271893423857 -0.256634081946 0.0
-0.00195388102263 0.00812757155545 0.0
0.555865238567 0.0459427486064 0.0
0.0223831617524 -0.0568211533675 0.0
-0.118547257684 0.229289203799 0.0
-0.0102144989967 -0.12751753812 0.0
-0.0190705749135 -0.00198171299473 0.0
0.737327558905 0.00798208131736 0.0
-0.0041951457853 0.0305432667594 0.0
0.246577394428 -0.00966297758167 0.0
-0.068312341612 0.191442363235 0.0
-0.0678028001705 -0.154999211746 0.0
-0.0821166916486 0.00408686258617 0.0
0.790753495428 -0.0018382495681 0.0
-0.00687140893444 0.0824775672703 0.0
-0.00470272259417 -0.0364086758918 0.0
-0.019685950544 0.000484716517786 0.0
-0.0685843213443 -0.299994139874 0.0
-0.0517135731641 -0.0127138934559 0.0
0.263646126521 0.084903376312 0.0
-0.0300272844505 0.0715141250064 0.0
0.307684397127 0.0324723884915 0.0
-0.0634711893786 -0.200755418432 0.0
-0.0446320303389 0.129026522827 0.0
-0.0717503507287 -0.00524261668715 0.0
-0.0866973801228 -0.251233134466 0.0
0.224846904926 0.0667796222637 0.0
-0.0727482956268 -0.0122656879327 0.0
-0.0487505358517 0.109263160305 0.0
-0.139604010693 0.248463615232 0.0
-0.101108762803 0.0405190248232 0.0
-0.0721372757257 -0.355466122544 0.0
-0.0223385938496 -0.00892049825468 0.0
0.258197891183 0.125533887746 0.0
-0.0115955176628 0.025266144852 0.0
-0.154189122593 0.0166289904124 0.0
0.253354492677 -0.13668383291 0.0
-0.0696250824034 0.330208902279 0.0
-0.0118388577903 -0.0240636612204 0.0
-0.0245651746063 0.00994883842251 0.0
-0.184379848089 0.0683215664301 0.0
-0.178761027523 -0.0674842012431 0.0
-0.151781845912 0.0646799656792 0.0
0.383238207868 -0.0415915669703 0.0
-0.0518500855218 0.225516175148 0.0
-0.0283623954894 -0.0806992669991 0.0
-0.0550248368502 0.00839736542121 0.0
-0.00095102631123 -0.00189974484117 0.0
-0.000716212548096 0.00267109208367 0.0
0.272264873121 -0.17329053656 0.0
0.000109309630018 -0.00138307994156 0.0
-0.0685244752025 0.349323012663 0.0
-0.0486488556547 -0.358709048132 0.0
-0.0014952396485 0.00306202526863 0.0
0.310933703542 0.123723210053 0.0
-0.104857875071 0.018088286188 0.0
-0.0558029359829 -0.0849025471901 0.0
-0.072369231954 0.0245621503117 0.0
0.0563081006725 -0.0213200487417 0.0
-0.108210960449 0.207508520687 0.0
-0.152316674503 -0.029105425325 0.0
-0.169799485057 0.156946712366 0.0
-0.0787665136575 -0.286357859919 0.0
-0.0393651655073 -0.0100931951837 0.0
0.350005668398 0.0726858748729 0.0
-0.0186738483301 0.0511195301471 0.0
0.0894393107554 -0.124369563209 0.0
-0.105531217116 0.288100510664 0.0
-0.116226085945 -0.0728845312458 0.0
-0.11727992098 0.0711329031784 0.0
-0.173041388128 0.04625735501 0.0
0.495440689023 -0.0165521292092 0.0
-0.0342420276434 0.167468218922 0.0
-0.024423977058 -0.0939764304877 0.0
-0.0529402730386 0.00307755213815 0.0
0.110655673206 0.0347217449331 0.0
-0.0831546990793 0.161832054308 0.0
-0.183189017157 -0.0409321704001 0.0
-0.152162032198 -0.187123337943 0.0
-0.103034521727 0.00828052144134 0.0
-0.0905767663924 -0.165762524665 0.0
-0.196680092433 -0.0772474765098 0.0
-0.122475183888 -0.111222278233 0.0
-0.179501285958 0.0102733938492 0.0
-0.0502714454524 -0.12855224063 0.0
-0.0977477964028 -0.10333065881 0.0
-0.139860965895 0.208647034674 0.0
-0.182283639503 -0.125958418996 0.0
0.170350660164 -0.0554803105626 0.0
-0.0895933499535 0.242981050407 0.0
-0.060502344143 -0.118786019046 0.0
-0.0809831934509 0.0148267939818 0.0
-0.157548699336 0.20924534611 0.0
-0.136028978299 -0.127365744161 0.0
-0.0184522837369 0.14344414051 0.0
-0.0792222327107 0.100061074548 0.0
-0.143661386446 -0.250424002724 0.0
-0.104024628777 -0.0248499237493 0.0
0.804940310725 0.0032656320121 0.0
-0.00323177762327 0.0587709557152 0.0
-0.00503263686628 -0.0485603279988 0.0
-0.0160730363866 0.000551761904444 0.0
-0.0593093922463 -0.0736427029984 0.0
-0.0711316165032 0.0337591298766 0.0
-0.198829865938 0.0571711094271 0.0
0.0112981505549 -0.173673885033 0.0
-0.114324652213 0.297666678113 0.0
-0.202950504911 -0.0864741781496 0.0
-0.199774446736 -0.0273007759874 0.0
-0.195544847795 -0.077947209719 0.0
-0.127004396355 0.0362593520878 0.0
-0.131286770321 0.124178240876 0.0
-0.192808440314 -0.141437153955 0.0
-0.172006179247 -0.0305001548591 0.0
-0.108333867475 -0.307245695706 0.0
-0.0652074916614 0.254243107644 0.0
-0.0570194555866 -0.0402291990813 0.0
-0.0545520523976 0.0521626357004 0.0
-0.113602707364 -0.343882579897 0.0
0.0569037533793 0.182159450087 0.0
-0.0525232770109 -0.0256444758892 0.0
-0.0377411376274 0.0559840104232 0.0
-0.133332891132 0.0122566692047 0.0
0.140245463009 -0.15466269999 0.0
-0.0903917755877 0.321487521645 0.0
-0.0306492570339 -0.0497058549734 0.0
-0.0466452631068 0.020251853709 0.0
0.378204993708 -0.0699136012743 0.0
-0.0534757367308 0.266783536184 0.0
-0.0176605994973 -0.0469069639255 0.0
-0.0405333433807 0.00934762436708 0.0
-0.00300601511572 0.0486256765283 0.0
-0.107438833658 0.158723437081 0.0
-0.0963289024567 0.0521371453373 0.0
-0.176222470177 -0.195966639579 0.0
-0.1321771796 -0.0480817321716 0.0
-0.15942568104 0.0362786892162 0.0
-0.163694267605 0.127177569292 0.0
0.753359381855 -0.00772858700065 0.0
-0.00814988361757 0.119414460023 0.0
-0.00248077535741 -0.020565610399 0.0
-0.011821297503 0.000637807818771 0.0
-0.134276463307 0.251323513424 0.0
-0.189097619291 0.117447385367 0.0
-0.00903975789431 -0.113666111151 0.0
-0.0108798937444 -0.000854545899132 0.0
0.775474248947 0.0106988874181 0.0
-0.00187630909096 0.0196989921399 0.0
0.521375609377 -0.0297654668021 0.0
-0.0337489613459 0.196220481866 0.0
-0.0157451721913 -0.0581553396823 0.0
-0.0416802600589 0.00495481006255 0.0
-0.116252975497 0.0846560767752 0.0
-0.0800362875593 0.101679191915 0.0
-0.088887989705 0.221803469743 0.0
-0.0778432321451 0.0698667164316 0.0
-0.206594114564 -0.0586321969432 0.0
0.153998389075 -0.218808018284 0.0
-0.079988603622 0.362247648415 0.0
-0.00660970165771 -0.0101711933151 0.0
-0.0124676002367 0.00737959589689 0.0
0.565798314335 -0.00227109019333 0.0
-0.0243305975061 0.127580247489 0.0
-0.0229623171552 -0.103732101814 0.0
-0.0491780597845 0.00103378488633 0.0
0.135358329794 0.00487780928431 0.0