# vtk DataFile Version 2.0
2D Simulation Python
ASCII
DATASET UNSTRUCTURED_GRID
FIELD FieldData 1
NODES 1 2 int
3798 7382

POINTS 3798 double
0.0 0.0 0.0
1.0 0.0 0.0
1.0 1.0 0.0
0.0 1.0 0.0
0.01886792452826637 0.0 0.0
0.03773584905653053 0.0 0.0
0.05660377358479097 0.0 0.0
0.07547169811305962 0.0 0.0
0.09433962264133271 0.0 0.0
0.1132075471696058 0.0 0.0
0.1320754716978688 0.0 0.0
0.1509433962261159 0.0 0.0
0.1698113207543628 0.0 0.0
0.1886792452826097 0.0 0.0
0.2075471698108566 0.0 0.0
0.2264150943391035 0.0 0.0
0.2452830188673504 0.0 0.0
0.2641509433955972 0.0 0.0
0.2830188679238441 0.0 0.0
0.301886792452091 0.0 0.0
0.3207547169803379 0.0 0.0
0.3396226415085848 0.0 0.0
0.3584905660368317 0.0 0.0
0.3773584905650785 0.0 0.0
0.3962264150933255 0.0 0.0
0.4150943396215723 0.0 0.0
0.4339622641498192 0.0 0.0
0.4528301886780661 0.0 0.0
0.4716981132063129 0.0 0.0
0.4905660377345599 0.0 0.0
0.5094339622628591 0.0 0.0
0.5283018867912108 0.0 0.0
0.5471698113195625 0.0 0.0
0.5660377358479143 0.0 0.0
0.5849056603762659 0.0 0.0
0.6037735849046176 0.0 0.0
0.6226415094329693 0.0 0.0
0.6415094339613208 0.0 0.0
0.6603773584896723 0.0 0.0
0.6792452830180238 0.0 0.0
0.6981132075463754 0.0 0.0
0.7169811320747269 0.0 0.0
0.7358490566030784 0.0 0.0
0.7547169811314299 0.0 0.0
0.7735849056597816 0.0 0.0
0.7924528301881331 0.0 0.0
0.8113207547164847 0.0 0.0
0.8301886792448361 0.0 0.0
0.8490566037731877 0.0 0.0
0.8679245283015392 0.0 0.0
0.8867924528298908 0.0 0.0
0.9056603773582425 0.0 0.0
0.9245283018865939 0.0 0.0
0.9433962264149454 0.0 0.0
0.962264150943297 0.0 0.0
0.9811320754716486 0.0 0.0
1.0 0.01886792452826637 0.0
1.0 0.03773584905653053 0.0
1.0 0.05660377358479097 0.0
1.0 0.07547169811305962 0.0
1.0 0.09433962264133271 0.0
1.0 0.1132075471696058 0.0
1.0 0.1320754716978688 0.0
1.0 0.1509433962261159 0.0
1.0 0.1698113207543628 0.0
1.0 0.1886792452826097 0.0
1.0 0.2075471698108566 0.0
1.0 0.2264150943391035 0.0
1.0 0.2452830188673504 0.0
1.0 0.2641509433955972 0.0
1.0 0.2830188679238441 0.0
1.0 0.301886792452091 0.0
1.0 0.3207547169803379 0.0
1.0 0.3396226415085848 0.0
1.0 0.3584905660368317 0.0
1.0 0.3773584905650785 0.0
1.0 0.3962264150933255 0.0
1.0 0.4150943396215723 0.0
1.0 0.4339622641498192 0.0
1.0 0.4528301886780661 0.0
1.0 0.4716981132063129 0.0
1.0 0.4905660377345599 0.0
1.0 0.5094339622628591 0.0
1.0 0.5283018867912108 0.0
1.0 0.5471698113195625 0.0
1.0 0.5660377358479143 0.0
1.0 0.5849056603762659 0.0
1.0 0.6037735849046176 0.0
1.0 0.6226415094329693 0.0
1.0 0.6415094339613208 0.0
1.0 0.6603773584896723 0.0
1.0 0.6792452830180238 0.0
1.0 0.6981132075463754 0.0
1.0 0.7169811320747269 0.0
1.0 0.7358490566030784 0.0
1.0 0.7547169811314299 0.0
1.0 0.7735849056597816 0.0
1.0 0.7924528301881331 0.0
1.0 0.8113207547164847 0.0
1.0 0.8301886792448361 0.0
1.0 0.8490566037731877 0.0
1.0 0.8679245283015392 0.0
1.0 0.8867924528298908 0.0
1.0 0.9056603773582425 0.0
1.0 0.9245283018865939 0.0
1.0 0.9433962264149454 0.0
1.0 0.962264150943297 0.0
1.0 0.9811320754716486 0.0
0.9811320754716195 1.0 0.0
0.9622641509432391 1.0 0.0
0.9433962264148587 1.0 0.0
0.9245283018864782 1.0 0.0
0.9056603773580978 1.0 0.0
0.8867924528297173 1.0 0.0
0.8679245283014174 1.0 0.0
0.8490566037732444 1.0 0.0
0.8301886792450734 1.0 0.0
0.8113207547169025 1.0 0.0
0.7924528301887315 1.0 0.0
0.7735849056605606 1.0 0.0
0.7547169811323896 1.0 0.0
0.7358490566042186 1.0 0.0
0.7169811320760476 1.0 0.0
0.6981132075478766 1.0 0.0
0.6792452830197057 1.0 0.0
0.6603773584915346 1.0 0.0
0.6415094339633636 1.0 0.0
0.6226415094351925 1.0 0.0
0.6037735849070215 1.0 0.0
0.5849056603788504 1.0 0.0
0.5660377358506794 1.0 0.0
0.5471698113225083 1.0 0.0
0.5283018867943372 1.0 0.0
0.5094339622661662 1.0 0.0
0.4905660377378905 1.0 0.0
0.4716981132095099 1.0 0.0
0.4528301886811295 1.0 0.0
0.4339622641527489 1.0 0.0
0.4150943396243684 1.0 0.0
0.3962264150959879 1.0 0.0
0.3773584905676074 1.0 0.0
0.358490566039227 1.0 0.0
0.3396226415108468 1.0 0.0
0.3207547169824663 1.0 0.0
0.3018867924540859 1.0 0.0
0.2830188679257056 1.0 0.0
0.2641509433973251 1.0 0.0
0.2452830188689448 1.0 0.0
0.2264150943405645 1.0 0.0
0.2075471698121841 1.0 0.0
0.1886792452838036 1.0 0.0
0.1698113207554234 1.0 0.0
0.150943396227043 1.0 0.0
0.1320754716986625 1.0 0.0
0.1132075471702823 1.0 0.0
0.09433962264190188 1.0 0.0
0.0754716981135215 1.0 0.0
0.05660377358514113 1.0 0.0
0.03773584905676075 1.0 0.0
0.01886792452838049 1.0 0.0
0.0 0.9811320754716195 0.0
0.0 0.9622641509432391 0.0
0.0 0.9433962264148587 0.0
0.0 0.9245283018864782 0.0
0.0 0.9056603773580978 0.0
0.0 0.8867924528297173 0.0
0.0 0.8679245283014174 0.0
0.0 0.8490566037732444 0.0
0.0 0.8301886792450734 0.0
0.0 0.8113207547169025 0.0
0.0 0.7924528301887315 0.0
0.0 0.7735849056605606 0.0
0.0 0.7547169811323896 0.0
0.0 0.7358490566042186 0.0
0.0 0.7169811320760476 0.0
0.0 0.6981132075478766 0.0
0.0 0.6792452830197057 0.0
0.0 0.6603773584915346 0.0
0.0 0.6415094339633636 0.0
0.0 0.6226415094351925 0.0
0.0 0.6037735849070215 0.0
0.0 0.5849056603788504 0.0
0.0 0.5660377358506794 0.0
0.0 0.5471698113225083 0.0
0.0 0.5283018867943372 0.0
0.0 0.5094339622661662 0.0
0.0 0.4905660377378905 0.0
0.0 0.4716981132095099 0.0
0.0 0.4528301886811295 0.0
0.0 0.4339622641527489 0.0
0.0 0.4150943396243684 0.0
0.0 0.3962264150959879 0.0
0.0 0.3773584905676074 0.0
0.0 0.358490566039227 0.0
0.0 0.3396226415108468 0.0
0.0 0.3207547169824663 0.0
0.0 0.3018867924540859 0.0
0.0 0.2830188679257056 0.0
0.0 0.2641509433973251 0.0
0.0 0.2452830188689448 0.0
0.0 0.2264150943405645 0.0
0.0 0.2075471698121841 0.0
0.0 0.1886792452838036 0.0
0.0 0.1698113207554234 0.0
0.0 0.150943396227043 0.0
0.0 0.1320754716986625 0.0
0.0 0.1132075471702823 0.0
0.0 0.09433962264190188 0.0
0.0 0.0754716981135215 0.0
0.0 0.05660377358514113 0.0
0.0 0.03773584905676075 0.0
0.0 0.01886792452838049 0.0
0.49961422419268997 0.4984293794066726 0.0
0.7093511500970902 0.706792936500378 0.0
0.29287482782244045 0.7110496278611782 0.0
0.7065208514432915 0.2921137893028175 0.0
0.2917146567058879 0.2951459957249887 0.0
0.5010883512796402 0.783530677658598 0.0
0.2164159732426224 0.5012876322837192 0.0
0.7820505253934122 0.4994927647991782 0.0
0.4969563419356505 0.21663804071479492 0.0
0.8269192007901067 0.8287013252031155 0.0
0.1712682973217082 0.8268730922835856 0.0
0.8299941553097447 0.17180608262880254 0.0
0.17180615988223974 0.17000622072452293 0.0
0.5640959313975822 0.6420224840910225 0.0
0.36076803388570655 0.5671667288006801 0.0
0.641160245161879 0.4320186669377829 0.0
0.4354935082651592 0.36378759861759746 0.0
0.6410454186381067 0.8479832937118897 0.0
0.1518368310809157 0.6410829539811169 0.0
0.8477907051244511 0.3598243790179788 0.0
0.35938579904680457 0.15130729784326102 0.0
0.8497305928919907 0.6399401683101269 0.0
0.3617952267412937 0.8474454291453152 0.0
0.6436051449793575 0.15189469658234833 0.0
0.15079737625026685 0.3588783576988489 0.0
0.6832039587940572 0.5823618751624478 0.0
0.4454396775914624 0.6627381531764 0.0
0.33424594078221964 0.4385872006022409 0.0
0.5773189844856303 0.3195812160927133 0.0
0.5368082180804761 0.8869865896668006 0.0
0.11301341973883329 0.5368082072162796 0.0
0.8863497125425446 0.46278650800142523 0.0
0.46231798559604276 0.1137357048419064 0.0
0.735504344602733 0.8878298811845817 0.0
0.11217246241749894 0.7355045289688809 0.0
0.8876386118329569 0.26464529586215935 0.0
0.26447675721717134 0.11218714573944835 0.0
0.8918893682153743 0.7430319146751548 0.0
0.7378676821853629 0.10938784471235846 0.0
0.2618554236513495 0.8907466135047526 0.0
0.10927139946373736 0.2618885660485004 0.0
0.6036356850091371 0.740958324467786 0.0
0.2594197395873493 0.6024781400358834 0.0
0.7471835282093033 0.3970113006814754 0.0
0.39635295506120277 0.25856270415268773 0.0
0.5973835830959042 0.5282120591728078 0.0
0.5269880475515504 0.40324375384926064 0.0
0.900344051349824 0.09737126935472232 0.0
0.09737116846728401 0.09965601878423913 0.0
0.9027736024298996 0.9004379740924425 0.0
0.09965486244215357 0.9026299600545967 0.0
0.3830054844266893 0.7484876862569074 0.0
0.25074672726321157 0.3828059459383084 0.0
0.9036934196956306 0.5634343341860331 0.0
0.436167023944368 0.903809418557912 0.0
0.5634650142808684 0.09627038765249357 0.0
0.09611428176536896 0.43622888244072316 0.0
0.7383691909253696 0.7977530090605311 0.0
0.20213608094646243 0.7381864461382426 0.0
0.7965379729869333 0.25833485688790847 0.0
0.25825176979143294 0.20343822649683996 0.0
0.8016496201203362 0.7232057683389532 0.0
0.27776554876540255 0.7985644202275013 0.0
0.7230025466734626 0.19888476423555862 0.0
0.20134253349952064 0.2778412830843111 0.0
0.48914355287031674 0.5909586444150075 0.0
0.4113298235007088 0.49483643887222295 0.0
0.7553604068177817 0.6323161440656005 0.0
0.6323326401346647 0.2446343261447706 0.0
0.3558016573651024 0.6535168196958461 0.0
0.6947272998992697 0.49553252027219197 0.0
0.34695271761644664 0.35520182412877976 0.0
0.49374473330545476 0.3082796821038452 0.0
0.8187154539118972 0.9148861354006228 0.0
0.08511383208187207 0.8187154148724425 0.0
0.9150328940734902 0.18133025458140606 0.0
0.18128457425270267 0.0851129709589244 0.0
0.8187403987114168 0.08420346742597412 0.0
0.9157746719419576 0.8186373542270347 0.0
0.08420340483892619 0.18125955209024192 0.0
0.18126035834340148 0.9157847355643594 0.0
0.6491759294498078 0.6582605894876106 0.0
0.518075563238964 0.700155561243168 0.0
0.2994944160935228 0.5182519107636043 0.0
0.6529572976260253 0.35254842454839763 0.0
0.6097401473872117 0.9217208439447089 0.0
0.07827850601264716 0.6097398708442259 0.0
0.9217267277120186 0.3902548071573767 0.0
0.39024121399465406 0.07825838690395835 0.0
0.9257398577009572 0.6657069734842804 0.0
0.6657516430505073 0.07518432263878908 0.0
0.3341866530930919 0.9246109018771522 0.0
0.07542270790545244 0.3342243925275289 0.0
0.8225798016625723 0.5644120390192462 0.0
0.43501894509773303 0.8272239480204406 0.0
0.5644015723185061 0.17743228884395235 0.0
0.1728552698143025 0.4351788286843611 0.0
0.5668992511560398 0.812632221934239 0.0
[...]
POINT_DATA 3798
VECTORS vector double
0.0 0.0 0.0
0.0 0.0 0.0
0.0 0.0 0.0
0.0 0.0 0.0
0.0 0.0 0.0
0.0 0.0 0.0
0.0 0.0 0.0
0.0 0.0 0.0
0.0 0.0 0.0
0.0 0.0 0.0
0.0 0.0 0.0
0.0 0.0 0.0
0.0 0.0 0.0
0.0 0.0 0.0
0.0 0.0 0.0
0.0 0.0 0.0
0.0 0.0 0.0
0.0 0.0 0.0
0.0 0.0 0.0
0.0 0.0 0.0
0.0 0.0 0.0
0.0 0.0 0.0
0.0 0.0 0.0
0.0 0.0 0.0
0.0 0.0 0.0
0.0 0.0 0.0
0.0 0.0 0.0
0.0 0.0 0.0
0.0 0.0 0.0
0.0 0.0 0.0
0.0 0.0 0.0
0.0 0.0 0.0
0.0 0.0 0.0
0.0 0.0 0.0
0.0 0.0 0.0
0.0 0.0 0.0
0.0 0.0 0.0
0.0 0.0 0.0
0.0 0.0 0.0
0.0 0.0 0.0
0.0 0.0 0.0
0.0 0.0 0.0
0.0 0.0 0.0
0.0 0.0 0.0
0.0 0.0 0.0
0.0 0.0 0.0
0.0 0.0 0.0
0.0 0.0 0.0
0.0 0.0 0.0
0.0 0.0 0.0
0.0 0.0 0.0
0.0 0.0 0.0
0.0 0.0 0.0
0.0 0.0 0.0
0.0 0.0 0.0
0.0 0.0 0.0
0.0 0.0 0.0
0.0 0.0 0.0
0.0 0.0 0.0
0.0 0.0 0.0
0.0 0.0 0.0
0.0 0.0 0.0
0.0 0.0 0.0
0.0 0.0 0.0
0.0 0.0 0.0
0.0 0.0 0.0
0.0 0.0 0.0
0.0 0.0 0.0
0.0 0.0 0.0
0.0 0.0 0.0
0.0 0.0 0.0
0.0 0.0 0.0
0.0 0.0 0.0
0.0 0.0 0.0
0.0 0.0 0.0
0.0 0.0 0.0
0.0 0.0 0.0
0.0 0.0 0.0
0.0 0.0 0.0
0.0 0.0 0.0
0.0 0.0 0.0
0.0 0.0 0.0
0.0 0.0 0.0
0.0 0.0 0.0
0.0 0.0 0.0
0.0 0.0 0.0
0.0 0.0 0.0
0.0 0.0 0.0
0.0 0.0 0.0
0.0 0.0 0.0
0.0 0.0 0.0
0.0 0.0 0.0
0.0 0.0 0.0
0.0 0.0 0.0
0.0 0.0 0.0
0.0 0.0 0.0
0.0 0.0 0.0
0.0 0.0 0.0
0.0 0.0 0.0
0.0 0.0 0.0
0.0 0.0 0.0
0.0 0.0 0.0
0.0 0.0 0.0
0.0 0.0 0.0
0.0 0.0 0.0
0.0 0.0 0.0
0.0 0.0 0.0
0.0 0.0 0.0
1.0 0.0 0.0
1.0 0.0 0.0
1.0 0.0 0.0
1.0 0.0 0.0
1.0 0.0 0.0
1.0 0.0 0.0
1.0 0.0 0.0
1.0 0.0 0.0
1.0 0.0 0.0
1.0 0.0 0.0
1.0 0.0 0.0
1.0 0.0 0.0
1.0 0.0 0.0
1.0 0.0 0.0
1.0 0.0 0.0
1.0 0.0 0.0
1.0 0.0 0.0
1.0 0.0 0.0
1.0 0.0 0.0
1.0 0.0 0.0
1.0 0.0 0.0
1.0 0.0 0.0
1.0 0.0 0.0
1.0 0.0 0.0
1.0 0.0 0.0
1.0 0.0 0.0
1.0 0.0 0.0
1.0 0.0 0.0
1.0 0.0 0.0
1.0 0.0 0.0
1.0 0.0 0.0
1.0 0.0 0.0
1.0 0.0 0.0
1.0 0.0 0.0
1.0 0.0 0.0
1.0 0.0 0.0
1.0 0.0 0.0
1.0 0.0 0.0
1.0 0.0 0.0
1.0 0.0 0.0
1.0 0.0 0.0
1.0 0.0 0.0
1.0 0.0 0.0
1.0 0.0 0.0
1.0 0.0 0.0
1.0 0.0 0.0
1.0 0.0 0.0
1.0 0.0 0.0
1.0 0.0 0.0
1.0 0.0 0.0
1.0 0.0 0.0
1.0 0.0 0.0
0.0 0.0 0.0
0.0 0.0 0.0
0.0 0.0 0.0
0.0 0.0 0.0
0.0 0.0 0.0
0.0 0.0 0.0
0.0 0.0 0.0
0.0 0.0 0.0
0.0 0.0 0.0
0.0 0.0 0.0
0.0 0.0 0.0
0.0 0.0 0.0
0.0 0.0 0.0
0.0 0.0 0.0
0.0 0.0 0.0
0.0 0.0 0.0
0.0 0.0 0.0
0.0 0.0 0.0
0.0 0.0 0.0
0.0 0.0 0.0
0.0 0.0 0.0
0.0 0.0 0.0
0.0 0.0 0.0
0.0 0.0 0.0
0.0 0.0 0.0
0.0 0.0 0.0
0.0 0.0 0.0
0.0 0.0 0.0
0.0 0.0 0.0
0.0 0.0 0.0
0.0 0.0 0.0
0.0 0.0 0.0
0.0 0.0 0.0
0.0 0.0 0.0
0.0 0.0 0.0
0.0 0.0 0.0
0.0 0.0 0.0
0.0 0.0 0.0
0.0 0.0 0.0
0.0 0.0 0.0
0.0 0.0 0.0
0.0 0.0 0.0
0.0 0.0 0.0
0.0 0.0 0.0
0.0 0.0 0.0
0.0 0.0 0.0
0.0 0.0 0.0
0.0 0.0 0.0
0.0 0.0 0.0
0.0 0.0 0.0
0.0 0.0 0.0
0.0 0.0 0.0
-0.205131474563 0.0510306383147 0.0
-0.124941021322 -0.157938454934 0.0
-0.0694619614422 0.218565534435 0.0
-0.102134659398 -0.0672023371462 0.0
-0.0845116124765 0.0597092455075 0.0
0.054652759996 0.106017066719 0.0
-0.0746023248305 0.155585206731 0.0
-0.177545551426 -0.216972695009 0.0
-0.10310013987 0.000760151911638 0.0
0.0275734951723 -0.305737567698 0.0
-0.0665839003503 0.239921317741 0.0
-0.0200865088902 -0.0203224950013 0.0
-0.0246508728799 0.0214732330513 0.0
-0.157806169612 0.0389739800229 0.0
-0.134408046212 0.16501532438 0.0
-0.205469347947 -0.0871092471507 0.0
-0.154986941563 0.0455447795215 0.0
0.253343472437 -0.00559508957029 0.0
-0.0451552745985 0.20279819466 0.0
-0.0546335660043 -0.0923967743829 0.0
-0.0614602140904 0.0145912225762 0.0
-0.16282316637 -0.375076443561 0.0
0.102666292192 0.127645957894 0.0
-0.0599633078093 -0.0167956248675 0.0
-0.0376400145563 0.0799106526012 0.0
-0.235288082799 -0.146211610009 0.0
-0.107193378498 0.148717594536 0.0
-0.132339921635 0.113842936263 0.0
-0.152485047633 -0.029445005899 0.0
0.367950712891 0.0369843750967 0.0
-0.0272953101122 0.137864909209 0.0
-0.0561664829885 -0.143989032331 0.0
-0.0577491605643 0.00249343543583 0.0
0.366090504662 -0.0676913048162 0.0
-0.0380044542131 0.217194009832 0.0
-0.0165946434206 -0.0332458581073 0.0
-0.0328390729904 0.0106460301434 0.0
-0.118118733685 -0.480263743367 0.0
-0.0274217372276 -0.0110052116518 0.0
0.111067465698 0.125581023033 0.0
-0.016821161044 0.0366456176125 0.0
-0.022550102581 0.0181575980045 0.0
-0.088030144025 0.201957232915 0.0
-0.138387470013 -0.130581770945 0.0
-0.106623759261 0.0308728260608 0.0
-0.232634153634 -0.0379048507781 0.0
-0.192692300426 0.00366585448764 0.0
-0.00270397044915 -0.00288924282913 0.0
-0.00519612129235 0.00481087811735 0.0
0.0679185578431 -0.370690413352 0.0
-0.0785747280776 0.252649692655 0.0
-0.0314810909532 0.178549184367 0.0
-0.0841911125106 0.0991974571696 0.0
-0.0711719967711 -0.226866226283 0.0
0.371709379987 0.0519047350872 0.0
-0.0487552312326 -0.00401878896631 0.0
-0.0204446316194 0.0885061999234 0.0
0.0540029783432 -0.152119709581 0.0
-0.0622517407915 0.239387724433 0.0
-0.0501454203126 -0.0521980417661 0.0
-0.0527873616949 0.0320423376552 0.0
-0.145221623122 -0.344756649202 0.0
-0.0305014711565 0.203183044055 0.0
-0.0571717035127 -0.0341027276265 0.0
-0.048586578774 0.0553126771721 0.0
-0.172746251045 0.0960660304679 0.0
-0.168626635473 0.110892055676 0.0
-0.215114730566 -0.264954770825 0.0
-0.102853686273 -0.0353661881786 0.0
-0.100114450542 0.192996008859 0.0
-0.225321443093 -0.150560588778 0.0
-0.120537767612 0.0738493930197 0.0
-0.14472212087 0.00814693262366 0.0
0.377173105846 -0.11645541362 0.0
-0.0523576611681 0.235500470994 0.0
-0.00526479978755 -0.00986878779498 0.0
-0.0139441754973 0.00612296102462 0.0
-0.0096663303379 -0.00577232707277 0.0
-0.0851543663895 -0.521572681138 0.0
-0.00806868101978 0.0145361133606 0.0
0.0945288608062 0.146549393261 0.0
-0.170126297854 -0.0724556999323 0.0
-0.0762607293531 0.0990348762233 0.0
-0.114552704406 0.160712453539 0.0
-0.157832881704 -0.0722043332967 0.0
0.557570743669 0.00314459880932 0.0
-0.0160553284661 0.133299207116 0.0
-0.0188663990997 -0.0619195423585 0.0
-0.037870108949 0.0035578911886 0.0
-0.0685197700751 -0.318792210697 0.0
-0.0288741709981 -0.00538789574638 0.0
0.376645771928 0.0566523541602 0.0
-0.0111632706972 0.0451787175942 0.0
-0.169241541447 -0.293243596088 0.0
0.112289785745 0.116451443636 0.0
-0.0812478843637 -0.010130627672 0.0
-0.0514780765035 0.118257402712 0.0
0.139279196172 0.0525609588074 0.0
-0.0602136738172 0.183132896663 0.0
-0.104059892976 -0.155197818368 0.0
-0.086143141794 0.0111154086715 0.0
-0.180676567418 0.0594445346289 0.0
-0.0884957304502 -0.0940666480756 0.0
-0.0767745013661 0.031645454042 0.0
0.0495315250313 -0.051841093442 0.0
-0.0695432199868 0.224797071806 0.0
-0.220457001498 -0.0266864439127 0.0
0.582692664188 -0.0150077160805 0.0
-0.0154676821294 0.149958620058 0.0
-0.0103040800661 -0.033447837026 0.0
-0.0292563222533 0.00445750995145 0.0
-0.225120261301 -0.237285041799 0.0
-0.116944251569 -0.0177458544683 0.0
-0.146146010823 0.144547708839 0.0
-0.0396811879129 0.148964211653 0.0
-0.0981964854858 0.130105370165 0.0
-0.217035685025 -0.0418074219472 0.0
-0.191698534035 -0.0416567360299 0.0
-0.151488422364 0.0803137799029 0.0
-0.208781773212 0.022146519118 0.0
-0.179192837284 0.105274650001 0.0
0.568498726052 0.0182599532826 0.0
-0.0108431701606 0.0844608999982 0.0
-0.0254840400019 -0.11989826965 0.0
-0.0374215837603 -0.000481802833408 0.0
0.188615438941 0.0826064354627 0.0
-0.0455220642938 0.139360071284 0.0
-0.122264797549 -0.22242972365 0.0
-0.078359226489 -0.000534399538231 0.0
0.227070880474 -0.0618958036101 0.0
-0.0494679668942 0.225646326887 0.0
-0.0404838444936 -0.0614934143668 0.0
-0.0521062026611 0.0190553216301 0.0
-0.102692191971 -0.403654822929 0.0
-0.027627190225 0.201186683314 0.0
-0.0329638929311 -0.0227473643538 0.0
-0.0297111444761 0.0361449234627 0.0
-0.0399456336764 0.199992158965 0.0
-0.0706985671868 0.0737820837832 0.0
-0.107177637607 0.0514087121499 0.0
-0.0356012451722 -0.201961768975 0.0
-0.0286218652993 -0.00267163596679 0.0
0.534340434319 0.0267828831945 0.0
-0.0082382379507 0.0507274818256 0.0
-0.0888656446726 0.211528611899 0.0
-0.184211973945 -0.16747966732 0.0
-0.130592157342 0.0289194378028 0.0
-0.000112869035758 2.84014696112e-05 0.0
-0.00102200734033 0.000629888502405 0.0
0.0822844511787 -0.343302320144 0.0
-0.0642987210687 0.270272968829 0.0
0.64085220168 0.00895755056009 0.0
-0.00868886430494 0.0938291441522 0.0
-0.014534840403 -0.0699547437063 0.0
-0.0326081126667 0.00101383948292 0.0
0.607214481264 -0.031061982953 0.0
-0.0159317597538 0.162147030292 0.0
-0.00393491643701 -0.0113634095991 0.0
-0.0152698531217 0.00316649711374 0.0
-0.0596987366818 -0.41129056175 0.0
-0.0112785098241 -0.00328470198688 0.0
0.356683715182 0.0633350757078 0.0
-0.00495559257257 0.0173954480985 0.0
0.159420202024 -0.163281995667 0.0
-0.0608558862716 0.246031006128 0.0
-0.0241396331499 -0.0325131293462 0.0
-0.0347377964531 0.0193960597401 0.0
-0.160461082267 -0.425448679447 0.0
0.0644110379101 0.150320112765 0.0
-0.0478621961574 -0.0199075774755 0.0
-0.0323233753154 0.0580782191499 0.0
-0.00623980926815 0.0778759075498 0.0
-0.0920415951288 0.178265566298 0.0
-0.130895799368 -0.0925012421264 0.0
-0.142780476609 0.0935689456539 0.0
-0.140961211268 0.142558007986 0.0
-0.0932278663841 -0.0553864682357 0.0
-0.195491548844 -0.16667532841 0.0
-0.126035641351 -0.0566480610262 0.0
-0.0876024849613 0.0500599653728 0.0
-0.109956746314 0.182563761008 0.0
-0.173628845395 -0.105130907248 0.0
-0.241177916295 -0.104193711386 0.0
-0.168883139748 -0.00779836034171 0.0
0.467957992671 -0.100924975261 0.0
-0.0492897832735 0.228226680659 0.0
-0.00123469858605 -0.00202461153838 0.0
-0.00509995689831 0.00198067109043 0.0
-0.00247579578686 -0.0014664642564 0.0
-0.0592515662254 -0.513795294388 0.0
-0.00247269349663 0.00477639271482 0.0
0.163808117194 0.120907643912 0.0
-0.0699543846668 0.199763499132 0.0
-0.110191329254 0.097505231662 0.0
-0.112669171842 0.0140633372258 0.0
0.329157920761 0.0249379221352 0.0
-0.034682203401 0.168351956747 0.0
-0.0541562474459 -0.114713603326 0.0
-0.0599263964918 0.0068992147122 0.0
-0.0833707671758 -0.218024452443 0.0
-0.0601086393346 0.227075052771 0.0
-0.0684876686075 -0.0521842266255 0.0
-0.0615166920825 0.0476779976382 0.0
-0.174115460656 -0.260789145143 0.0
-0.0868262436691 -0.0454471460963 0.0
0.106684854544 0.0117391817837 0.0
-0.066161270967 0.207825988479 0.0
-0.0973458742186 -0.122606193034 0.0
-0.0845913613111 0.0214365355687 0.0
-0.0451190435539 -0.318853964607 0.0
-0.015792718478 -0.00295122225694 0.0
0.486882896489 0.0349119497866 0.0
-0.00497799546135 0.0247208419034 0.0
0.116882723766 -0.294132349273 0.0
-0.0776480063176 0.255243469164 0.0
-0.00926043544087 -0.0105696648423 0.0
-0.0143586436277 0.0117719326504 0.0
0.0355999393355 0.154373737026 0.0
-0.0607500396128 0.100129021872 0.0
-0.231673780631 -0.0833257256078 0.0
-0.170080056364 0.0236596283048 0.0
-0.0732826688338 0.175644844141 0.0
-0.0137665965496 -0.255204983922 0.0
-0.0618710127373 0.235805866074 0.0
-0.0382569773443 -0.0352195300659 0.0
-0.0409198339546 0.0333739413966 0.0
-0.095565303584 0.0805008974821 0.0
-0.10422002164 -0.307953739773 0.0
0.26741036102 0.0769413293969 0.0
-0.0499747759965 -0.00801102531376 0.0
-0.0235361273291 0.0792196013605 0.0
-0.198929290467 -0.326539115542 0.0
-0.0821238777393 -0.0208593303131 0.0
-0.203556601538 0.03209445166 0.0
-0.219922064437 0.00824475796758 0.0
-0.129499805664 0.0501559077097 0.0
-0.191088669811 -0.352555183196 0.0
-0.0718945475251 -0.0293248916344 0.0
0.0100321766746 0.173646093435 0.0
-0.0504189131196 0.0729551080654 0.0
-0.157584957639 0.136824823167 0.0
-0.0175066684785 -0.114049402882 0.0
-0.0246484903345 -0.000837072277003 0.0
0.678241882981 0.0141348846431 0.0
-0.00499390511099 0.0496530544972 0.0
-0.110927841916 0.190422409094 0.0
-0.202176953309 -0.131501065361 0.0
-0.0816339435058 -0.455565799741 0.0
-0.0202944098627 0.195071762197 0.0
-0.0189252213127 -0.0133529236787 0.0
-0.0176123711616 0.0237696020935 0.0
0.359409535886 0.0557648903543 0.0
-0.0251141453455 0.11429943266 0.0
-0.070051983152 -0.186590902573 0.0
-0.0555838069712 -0.000710189926369 0.0
-0.190082183365 0.0770049512175 0.0
0.0167764926193 0.145771686252 0.0
-0.0766430422189 0.123571894779 0.0
0.367943494096 -0.0293340777328 0.0
-0.034902613896 0.198961536396 0.0
-0.0279957751356 -0.056884630384 0.0
-0.0443169034435 0.0108948286761 0.0
-0.201102433357 0.0592943439955 0.0
0.701444723028 -0.0123185240794 0.0
-0.00779631684026 0.120383249321 0.0
-0.00357146454106 -0.014522277592 0.0
-0.0167546267601 0.00238134529814 0.0
-0.153920857512 0.107815892878 0.0
0.728172478231 -0.00708666042245 0.0
-0.00765960072604 0.0960414010941 0.0
-0.00489652143492 -0.0274286630337 0.0
-0.0214589199017 0.00126958620952 0.0
-0.238293746714 -0.17479769544 0.0
-0.140311929958 -0.0133135210452 0.0
-0.113886764779 0.17134660082 0.0
-0.137520085356 0.133023060935 0.0
-0.231488444462 -0.201606148809 0.0
-0.127967256582 -0.0338449620218 0.0
0.204804237146 -0.178909175648 0.0
-0.0651742412183 0.250506164204 0.0
-0.0125362295341 -0.0187486493601 0.0
-0.0223671603706 0.012745844936 0.0
-0.0292566945375 -0.115380847723 0.0
-0.0694696008215 0.229523420003 0.0
-0.0833328264478 -0.0739160854609 0.0
-0.0727546705974 0.0431145041563 0.0
-0.0320819296661 -0.448687590924 0.0
-0.00813537074043 -0.00690244553342 0.0
-0.0441412451846 0.211594839789 0.0
-0.00969382248747 0.0118554729336 0.0
-0.143508709511 -0.00369184071251 0.0
-0.214006061807 -0.201067936727 0.0
-0.123072060565 -0.00162193272662 0.0
-0.146600540857 -0.162376260679 0.0
-0.131010143716 0.0926350509973 0.0
-0.192145946687 -0.257087923392 0.0
-0.0990706537541 -0.00890679021463 0.0
-0.126428151239 0.174152378225 0.0
-0.177211074901 0.0613353634594 0.0
-0.02420762984 0.118178089524 0.0
-0.079212741617 0.137538698761 0.0
-0.095525209758 0.153474297724 0.0
-0.119283421319 0.136278376024 0.0
-0.214785585876 -0.0956691356437 0.0
-0.186560283579 -0.0745724920841 0.0
-0.163118877169 -0.0516019064254 0.0
0.64765842477 -0.0339871420101 0.0
-0.0176138506069 0.15157379431 0.0
-0.00128527017258 -0.00382730212304 0.0
-0.00696092148271 0.00152267368738 0.0
-0.00428966736836 -0.00122431834046 0.0
-0.0421480011568 -0.394649731699 0.0
-0.00187964698801 0.00811268189323 0.0
0.432108458837 0.0513868264744 0.0
0.0559441158633 0.0461396871782 0.0
-0.0742876101459 0.193281689361 0.0
-0.0206214157129 -0.177992389273 0.0
-0.0172882635954 -0.00168142312423 0.0
0.652494648566 0.0136424115512 0.0
-0.00385612005673 0.0299421589577 0.0
0.226984503259 0.0602485426911 0.0
-0.0452706822576 0.158186253516 0.0
-0.101686284122 -0.179728565577 0.0
-0.0746670717898 0.0039247028498 0.0
0.786951595515 0.00296156923872 0.0
-0.00388568772158 0.0675134872576 0.0
-0.00543953263661 -0.0307529228907 0.0
-0.0188775555689 0.000970359023008 0.0
-0.118864830454 -0.428814054325 0.0
-0.0446421588731 -0.0124397269505 0.0
0.149890323985 0.112309040835 0.0
-0.0268115948206 0.0650761590995 0.0
0.230554958251 0.0826001600997 0.0
-0.109039445992 -0.255763085216 0.0
-0.0344557106926 0.112278224935 0.0
-0.0647023675057 -0.00503977831453 0.0
-0.1520284956 -0.329425330389 0.0
0.14422100216 0.114025350375 0.0
-0.0659340679648 -0.0121250113566 0.0
-0.0403826985362 0.0964473378614 0.0
-0.0811417159699 0.217614101498 0.0
-0.0931402170481 0.037559605301 0.0
-0.102427153485 -0.502670799866 0.0
-0.0168272752737 -0.00786100519111 0.0
0.12141609773 0.12675293823 0.0
-0.011130081996 0.0237863155938 0.0
-0.151620651485 0.0236794567195 0.0
0.366626314489 -0.101899807389 0.0
-0.0454182325071 0.229436216341 0.0
-0.0090036068469 -0.0173288544656 0.0
-0.0213351279592 0.00831360165346 0.0
-0.170375723541 0.0895992944949 0.0
-0.2082785337 -0.0485974892965 0.0
-0.139589346424 0.0687648959787 0.0
0.402895253837 0.00200035734829 0.0
-0.0284481403441 0.173395543553 0.0
-0.0329475121521 -0.0774451028466 0.0
-0.0489996924321 0.00778502701662 0.0
-0.000284677444613 -2.84540136675e-05 0.0
-0.00133487196486 0.000696322166816 0.0
0.379657546112 -0.154417885553 0.0
3.1455544775e-05 -0.000265405279898 0.0
-0.0683565997821 0.267122208911 0.0
-0.0392796780144 -0.482481459807 0.0
-0.000909433212495 0.00124460752321 0.0
0.212571395176 0.11439205008 0.0
-0.0977593523129 0.0174915252568 0.0
-0.0620453382068 -0.0848525778061 0.0
-0.0653061538957 0.0219146492687 0.0
0.0764316266194 0.0757223370156 0.0
-0.072509556965 0.175828474627 0.0
-0.118417917537 0.0743924599396 0.0
-0.127160642886 0.162971074237 0.0
-0.139481909404 -0.393165452916 0.0
-0.0329823144393 -0.00967882046625 0.0
0.211583370899 0.0916879756102 0.0
-0.0172230167071 0.0477384813722 0.0
0.153728403597 -0.0416235665896 0.0
-0.0571863513627 0.223639649535 0.0
-0.13090531733 -0.0738409394074 0.0
-0.106533360917 0.0669977219721 0.0
-0.167926503248 0.0609852035547 0.0
0.473713322856 0.0165927762896 0.0
-0.020935309932 0.135700210496 0.0
-0.0326249357502 -0.0958685796872 0.0
-0.0467643770213 0.00306487939482 0.0
0.0952812747463 0.111125985274 0.0
-0.0626837632024 0.139086301838 0.0
-0.205806406842 -0.0204114428347 0.0
-0.150061978884 -0.106350785742 0.0
-0.0960955104485 0.0082998911506 0.0
-0.134950819723 -0.192207171651 0.0
-0.197727203499 0.00640695803539 0.0
-0.0931433100437 -0.00257699646602 0.0
-0.183478790422 0.0294571422501 0.0
-0.00385670377728 -0.0231258696023 0.0
-0.118717904186 -0.109223009724 0.0
-0.0823424261842 0.21043823853 0.0
-0.188443608051 -0.0411256179292 0.0
0.195917118553 0.0256264396661 0.0
-0.0522126928491 0.19364807792 0.0
-0.0784977870182 -0.127676456126 0.0
-0.073802521574 0.0137141383618 0.0
-0.100465694546 0.197985212751 0.0
-0.180131911516 -0.133499328182 0.0
-0.0131000396514 0.180191479814 0.0
-0.0686184855661 0.0886590249653 0.0
-0.218765066319 -0.281030476061 0.0
-0.101422061529 -0.024431214796 0.0
0.786284710818 0.00839629716784 0.0
-0.00197774864387 0.0518248695473 0.0
-0.00663744323011 -0.0473813584701 0.0
-0.0183084753011 0.000487582701616 0.0
-0.0626806047662 -0.0727049008073 0.0
-0.0650612836411 0.0298728966445 0.0
-0.166000024449 0.118474057802 0.0
0.0826332400833 -0.0887072752809 0.0
-0.0623425788941 0.233443458631 0.0
-0.223608308234 -0.0215701885797 0.0
-0.216146326566 0.00695099001234 0.0
-0.230194694997 -0.044545671197 0.0
-0.119467224966 0.0366544026944 0.0
-0.110241805625 0.117274754491 0.0
-0.23493418236 -0.0929234558743 0.0
-0.187781320875 -0.0162536960816 0.0
-0.0871015539701 -0.288512874846 0.0
-0.0513440236475 0.222152821095 0.0
-0.0520956382748 -0.0385425876114 0.0
-0.0496193683248 0.0460156318602 0.0
-0.148696548848 -0.408773215349 0.0
0.00229178110452 0.18064809556 0.0
-0.0459234058231 -0.0246235732973 0.0
-0.0347655245209 0.0502074996699 0.0
-0.130063242116 0.0148846957846 0.0
0.235310294541 -0.095369364915 0.0
-0.0508135019234 0.234233683115 0.0
-0.0283052659143 -0.0436408419909 0.0
-0.0416995491435 0.017581219728 0.0
0.442960327284 -0.0369694916057 0.0
-0.028250705197 0.192521356146 0.0
-0.0166303301154 -0.0388442221378 0.0
-0.0350851535848 0.00828127100725 0.0
0.0130764005276 0.131890503559 0.0
-0.0828415270383 0.140137470322 0.0
-0.0880691096346 0.0476340565864 0.0
-0.218132206663 -0.151329403586 0.0
-0.142201021003 -0.0460281729082 0.0
-0.116887946976 0.124244394507 0.0
-0.134733873974 0.132043372245 0.0
0.77455156904 -0.00613503631515 0.0
-0.00421945803038 0.0875016652192 0.0
-0.00211899968921 -0.0137884369968 0.0
-0.0137196698747 0.00114267025928 0.0
-0.0762439741979 0.223056203872 0.0
-0.144624038294 0.153786150082 0.0
-0.0168825432811 -0.16504177677 0.0
-0.0111489103732 -0.00083007049096 0.0
0.701497998619 0.0153808381222 0.0
-0.00170219988563 0.0196519378938 0.0
0.539905028795 -0.00564139219754 0.0
-0.0181059936701 0.149145264566 0.0
-0.0169046598236 -0.0509357160883 0.0
-0.0362061608553 0.00485721154969 0.0
-0.0713997705437 0.157824131237 0.0
-0.0453229372952 0.166379337749 0.0
-0.0548409551385 0.214432430515 0.0
-0.0699076264506 0.0621495444776 0.0
-0.223139848668 -0.000123282471574 0.0
0.286187538588 -0.188283346864 0.0
-0.072633878827 0.258532578506 0.0
-0.00410689728286 -0.00601643292076 0.0
-0.00992945976401 0.0057202595519 0.0
0.518883700324 0.0246428097109 0.0
-0.0162878707902 0.10807537104 0.0
-0.0339681593739 -0.112409048837 0.0
-0.0433389414582 0.00105511340038 0.0