# vtk DataFile Version 2.0
2D Simulation Python
ASCII
DATASET UNSTRUCTURED_GRID
FIELD FieldData 1
NODES 1 2 int
3798 7382

POINTS 3798 double
0.0 0.0 0.0
1.0 0.0 0.0
1.0 1.0 0.0
0.0 1.0 0.0
0.01886792452826637 0.0 0.0
0.03773584905653053 0.0 0.0
0.05660377358479097 0.0 0.0
0.07547169811305962 0.0 0.0
0.09433962264133271 0.0 0.0
0.1132075471696058 0.0 0.0
0.1320754716978688 0.0 0.0
0.1509433962261159 0.0 0.0
0.1698113207543628 0.0 0.0
0.1886792452826097 0.0 0.0
0.2075471698108566 0.0 0.0
0.2264150943391035 0.0 0.0
0.2452830188673504 0.0 0.0
0.2641509433955972 0.0 0.0
0.2830188679238441 0.0 0.0
0.301886792452091 0.0 0.0
0.3207547169803379 0.0 0.0
0.3396226415085848 0.0 0.0
0.3584905660368317 0.0 0.0
0.3773584905650785 0.0 0.0
0.3962264150933255 0.0 0.0
0.4150943396215723 0.0 0.0
0.4339622641498192 0.0 0.0
0.4528301886780661 0.0 0.0
0.4716981132063129 0.0 0.0
0.4905660377345599 0.0 0.0
0.5094339622628591 0.0 0.0
0.5283018867912108 0.0 0.0
0.5471698113195625 0.0 0.0
0.5660377358479143 0.0 0.0
0.5849056603762659 0.0 0.0
0.6037735849046176 0.0 0.0
0.6226415094329693 0.0 0.0
0.6415094339613208 0.0 0.0
0.6603773584896723 0.0 0.0
0.6792452830180238 0.0 0.0
0.6981132075463754 0.0 0.0
0.7169811320747269 0.0 0.0
0.7358490566030784 0.0 0.0
0.7547169811314299 0.0 0.0
0.7735849056597816 0.0 0.0
0.7924528301881331 0.0 0.0
0.8113207547164847 0.0 0.0
0.8301886792448361 0.0 0.0
0.8490566037731877 0.0 0.0
0.8679245283015392 0.0 0.0
0.8867924528298908 0.0 0.0
0.9056603773582425 0.0 0.0
0.9245283018865939 0.0 0.0
0.9433962264149454 0.0 0.0
0.962264150943297 0.0 0.0
0.9811320754716486 0.0 0.0
1.0 0.01886792452826637 0.0
1.0 0.03773584905653053 0.0
1.0 0.05660377358479097 0.0
1.0 0.07547169811305962 0.0
1.0 0.09433962264133271 0.0
1.0 0.1132075471696058 0.0
1.0 0.1320754716978688 0.0
1.0 0.1509433962261159 0.0
1.0 0.1698113207543628 0.0
1.0 0.1886792452826097 0.0
1.0 0.2075471698108566 0.0
1.0 0.2264150943391035 0.0
1.0 0.2452830188673504 0.0
1.0 0.2641509433955972 0.0
1.0 0.2830188679238441 0.0
1.0 0.301886792452091 0.0
1.0 0.3207547169803379 0.0
1.0 0.3396226415085848 0.0
1.0 0.3584905660368317 0.0
1.0 0.3773584905650785 0.0
1.0 0.3962264150933255 0.0
1.0 0.4150943396215723 0.0
1.0 0.4339622641498192 0.0
1.0 0.4528301886780661 0.0
1.0 0.4716981132063129 0.0
1.0 0.4905660377345599 0.0
1.0 0.5094339622628591 0.0
1.0 0.5283018867912108 0.0
1.0 0.5471698113195625 0.0
1.0 0.5660377358479143 0.0
1.0 0.5849056603762659 0.0
1.0 0.6037735849046176 0.0
1.0 0.6226415094329693 0.0
1.0 0.6415094339613208 0.0
1.0 0.6603773584896723 0.0
1.0 0.6792452830180238 0.0
1.0 0.6981132075463754 0.0
1.0 0.7169811320747269 0.0
1.0 0.7358490566030784 0.0
1.0 0.7547169811314299 0.0
1.0 0.7735849056597816 0.0
1.0 0.7924528301881331 0.0
1.0 0.8113207547164847 0.0
1.0 0.8301886792448361 0.0
1.0 0.8490566037731877 0.0
1.0 0.8679245283015392 0.0
1.0 0.8867924528298908 0.0
1.0 0.9056603773582425 0.0
1.0 0.9245283018865939 0.0
1.0 0.9433962264149454 0.0
1.0 0.962264150943297 0.0
1.0 0.9811320754716486 0.0
0.9811320754716195 1.0 0.0
0.9622641509432391 1.0 0.0
0.9433962264148587 1.0 0.0
0.9245283018864782 1.0 0.0
0.9056603773580978 1.0 0.0
0.8867924528297173 1.0 0.0
0.8679245283014174 1.0 0.0
0.8490566037732444 1.0 0.0
0.8301886792450734 1.0 0.0
0.8113207547169025 1.0 0.0
0.7924528301887315 1.0 0.0
0.7735849056605606 1.0 0.0
0.7547169811323896 1.0 0.0
0.7358490566042186 1.0 0.0
0.7169811320760476 1.0 0.0
0.6981132075478766 1.0 0.0
0.6792452830197057 1.0 0.0
0.6603773584915346 1.0 0.0
0.6415094339633636 1.0 0.0
0.6226415094351925 1.0 0.0
0.6037735849070215 1.0 0.0
0.5849056603788504 1.0 0.0
0.5660377358506794 1.0 0.0
0.5471698113225083 1.0 0.0
0.5283018867943372 1.0 0.0
0.5094339622661662 1.0 0.0
0.4905660377378905 1.0 0.0
0.4716981132095099 1.0 0.0
0.4528301886811295 1.0 0.0
0.4339622641527489 1.0 0.0
0.4150943396243684 1.0 0.0
0.3962264150959879 1.0 0.0
0.3773584905676074 1.0 0.0
0.358490566039227 1.0 0.0
0.3396226415108468 1.0 0.0
0.3207547169824663 1.0 0.0
0.3018867924540859 1.0 0.0
0.2830188679257056 1.0 0.0
0.2641509433973251 1.0 0.0
0.2452830188689448 1.0 0.0
0.2264150943405645 1.0 0.0
0.2075471698121841 1.0 0.0
0.1886792452838036 1.0 0.0
0.1698113207554234 1.0 0.0
0.150943396227043 1.0 0.0
0.1320754716986625 1.0 0.0
0.1132075471702823 1.0 0.0
0.09433962264190188 1.0 0.0
0.0754716981135215 1.0 0.0
0.05660377358514113 1.0 0.0
0.03773584905676075 1.0 0.0
0.01886792452838049 1.0 0.0
0.0 0.9811320754716195 0.0
0.0 0.9622641509432391 0.0
0.0 0.9433962264148587 0.0
0.0 0.9245283018864782 0.0
0.0 0.9056603773580978 0.0
0.0 0.8867924528297173 0.0
0.0 0.8679245283014174 0.0
0.0 0.8490566037732444 0.0
0.0 0.8301886792450734 0.0
0.0 0.8113207547169025 0.0
0.0 0.7924528301887315 0.0
0.0 0.7735849056605606 0.0
0.0 0.7547169811323896 0.0
0.0 0.7358490566042186 0.0
0.0 0.7169811320760476 0.0
0.0 0.6981132075478766 0.0
0.0 0.6792452830197057 0.0
0.0 0.6603773584915346 0.0
0.0 0.6415094339633636 0.0
0.0 0.6226415094351925 0.0
0.0 0.6037735849070215 0.0
0.0 0.5849056603788504 0.0
0.0 0.5660377358506794 0.0
0.0 0.5471698113225083 0.0
0.0 0.5283018867943372 0.0
0.0 0.5094339622661662 0.0
0.0 0.4905660377378905 0.0
0.0 0.4716981132095099 0.0
0.0 0.4528301886811295 0.0
0.0 0.4339622641527489 0.0
0.0 0.4150943396243684 0.0
0.0 0.3962264150959879 0.0
0.0 0.3773584905676074 0.0
0.0 0.358490566039227 0.0
0.0 0.3396226415108468 0.0
0.0 0.3207547169824663 0.0
0.0 0.3018867924540859 0.0
0.0 0.2830188679257056 0.0
0.0 0.2641509433973251 0.0
0.0 0.2452830188689448 0.0
0.0 0.2264150943405645 0.0
0.0 0.2075471698121841 0.0
0.0 0.1886792452838036 0.0
0.0 0.1698113207554234 0.0
0.0 0.150943396227043 0.0
0.0 0.1320754716986625 0.0
0.0 0.1132075471702823 0.0
0.0 0.09433962264190188 0.0
0.0 0.0754716981135215 0.0
0.0 0.05660377358514113 0.0
0.0 0.03773584905676075 0.0
0.0 0.01886792452838049 0.0
0.49961422419268997 0.4984293794066726 0.0
0.7093511500970902 0.706792936500378 0.0
0.29287482782244045 0.7110496278611782 0.0
0.7065208514432915 0.2921137893028175 0.0
0.2917146567058879 0.2951459957249887 0.0
0.5010883512796402 0.783530677658598 0.0
0.2164159732426224 0.5012876322837192 0.0
0.7820505253934122 0.4994927647991782 0.0
0.4969563419356505 0.21663804071479492 0.0
0.8269192007901067 0.8287013252031155 0.0
0.1712682973217082 0.8268730922835856 0.0
0.8299941553097447 0.17180608262880254 0.0
0.17180615988223974 0.17000622072452293 0.0
0.5640959313975822 0.6420224840910225 0.0
0.36076803388570655 0.5671667288006801 0.0
0.641160245161879 0.4320186669377829 0.0
0.4354935082651592 0.36378759861759746 0.0
0.6410454186381067 0.8479832937118897 0.0
0.1518368310809157 0.6410829539811169 0.0
0.8477907051244511 0.3598243790179788 0.0
0.35938579904680457 0.15130729784326102 0.0
0.8497305928919907 0.6399401683101269 0.0
0.3617952267412937 0.8474454291453152 0.0
0.6436051449793575 0.15189469658234833 0.0
0.15079737625026685 0.3588783576988489 0.0
0.6832039587940572 0.5823618751624478 0.0
0.4454396775914624 0.6627381531764 0.0
0.33424594078221964 0.4385872006022409 0.0
0.5773189844856303 0.3195812160927133 0.0
0.5368082180804761 0.8869865896668006 0.0
0.11301341973883329 0.5368082072162796 0.0
0.8863497125425446 0.46278650800142523 0.0
0.46231798559604276 0.1137357048419064 0.0
0.735504344602733 0.8878298811845817 0.0
0.11217246241749894 0.7355045289688809 0.0
0.8876386118329569 0.26464529586215935 0.0
0.26447675721717134 0.11218714573944835 0.0
0.8918893682153743 0.7430319146751548 0.0
0.7378676821853629 0.10938784471235846 0.0
0.2618554236513495 0.8907466135047526 0.0
0.10927139946373736 0.2618885660485004 0.0
0.6036356850091371 0.740958324467786 0.0
0.2594197395873493 0.6024781400358834 0.0
0.7471835282093033 0.3970113006814754 0.0
0.39635295506120277 0.25856270415268773 0.0
0.5973835830959042 0.5282120591728078 0.0
0.5269880475515504 0.40324375384926064 0.0
0.900344051349824 0.09737126935472232 0.0
0.09737116846728401 0.09965601878423913 0.0
0.9027736024298996 0.9004379740924425 0.0
0.09965486244215357 0.9026299600545967 0.0
0.3830054844266893 0.7484876862569074 0.0
0.25074672726321157 0.3828059459383084 0.0
0.9036934196956306 0.5634343341860331 0.0
0.436167023944368 0.903809418557912 0.0
0.5634650142808684 0.09627038765249357 0.0
0.09611428176536896 0.43622888244072316 0.0
0.7383691909253696 0.7977530090605311 0.0
0.20213608094646243 0.7381864461382426 0.0
0.7965379729869333 0.25833485688790847 0.0
0.25825176979143294 0.20343822649683996 0.0
0.8016496201203362 0.7232057683389532 0.0
0.27776554876540255 0.7985644202275013 0.0
0.7230025466734626 0.19888476423555862 0.0
0.20134253349952064 0.2778412830843111 0.0
0.48914355287031674 0.5909586444150075 0.0
0.4113298235007088 0.49483643887222295 0.0
0.7553604068177817 0.6323161440656005 0.0
0.6323326401346647 0.2446343261447706 0.0
0.3558016573651024 0.6535168196958461 0.0
0.6947272998992697 0.49553252027219197 0.0
0.34695271761644664 0.35520182412877976 0.0
0.49374473330545476 0.3082796821038452 0.0
0.8187154539118972 0.9148861354006228 0.0
0.08511383208187207 0.8187154148724425 0.0
0.9150328940734902 0.18133025458140606 0.0
0.18128457425270267 0.0851129709589244 0.0
0.8187403987114168 0.08420346742597412 0.0
0.9157746719419576 0.8186373542270347 0.0
0.08420340483892619 0.18125955209024192 0.0
0.18126035834340148 0.9157847355643594 0.0
0.6491759294498078 0.6582605894876106 0.0
0.518075563238964 0.700155561243168 0.0
0.2994944160935228 0.5182519107636043 0.0
0.6529572976260253 0.35254842454839763 0.0
0.6097401473872117 0.9217208439447089 0.0
0.07827850601264716 0.6097398708442259 0.0
0.9217267277120186 0.3902548071573767 0.0
0.39024121399465406 0.07825838690395835 0.0
0.9257398577009572 0.6657069734842804 0.0
0.6657516430505073 0.07518432263878908 0.0
0.3341866530930919 0.9246109018771522 0.0
0.07542270790545244 0.3342243925275289 0.0
0.8225798016625723 0.5644120390192462 0.0
0.43501894509773303 0.8272239480204406 0.0
0.5644015723185061 0.17743228884395235 0.0
0.1728552698143025 0.4351788286843611 0.0
0.5668992511560398 0.812632221934239 0.0
[...]
POINT_DATA 3798
VECTORS vector double
0.0 0.0 0.0
0.0 0.0 0.0
0.0 0.0 0.0
0.0 0.0 0.0
0.0 0.0 0.0
0.0 0.0 0.0
0.0 0.0 0.0
0.0 0.0 0.0
0.0 0.0 0.0
0.0 0.0 0.0
0.0 0.0 0.0
0.0 0.0 0.0
0.0 0.0 0.0
0.0 0.0 0.0
0.0 0.0 0.0
0.0 0.0 0.0
0.0 0.0 0.0
0.0 0.0 0.0
0.0 0.0 0.0
0.0 0.0 0.0
0.0 0.0 0.0
0.0 0.0 0.0
0.0 0.0 0.0
0.0 0.0 0.0
0.0 0.0 0.0
0.0 0.0 0.0
0.0 0.0 0.0
0.0 0.0 0.0
0.0 0.0 0.0
0.0 0.0 0.0
0.0 0.0 0.0
0.0 0.0 0.0
0.0 0.0 0.0
0.0 0.0 0.0
0.0 0.0 0.0
0.0 0.0 0.0
0.0 0.0 0.0
0.0 0.0 0.0
0.0 0.0 0.0
0.0 0.0 0.0
0.0 0.0 0.0
0.0 0.0 0.0
0.0 0.0 0.0
0.0 0.0 0.0
0.0 0.0 0.0
0.0 0.0 0.0
0.0 0.0 0.0
0.0 0.0 0.0
0.0 0.0 0.0
0.0 0.0 0.0
0.0 0.0 0.0
0.0 0.0 0.0
0.0 0.0 0.0
0.0 0.0 0.0
0.0 0.0 0.0
0.0 0.0 0.0
0.0 0.0 0.0
0.0 0.0 0.0
0.0 0.0 0.0
0.0 0.0 0.0
0.0 0.0 0.0
0.0 0.0 0.0
0.0 0.0 0.0
0.0 0.0 0.0
0.0 0.0 0.0
0.0 0.0 0.0
0.0 0.0 0.0
0.0 0.0 0.0
0.0 0.0 0.0
0.0 0.0 0.0
0.0 0.0 0.0
0.0 0.0 0.0
0.0 0.0 0.0
0.0 0.0 0.0
0.0 0.0 0.0
0.0 0.0 0.0
0.0 0.0 0.0
0.0 0.0 0.0
0.0 0.0 0.0
0.0 0.0 0.0
0.0 0.0 0.0
0.0 0.0 0.0
0.0 0.0 0.0
0.0 0.0 0.0
0.0 0.0 0.0
0.0 0.0 0.0
0.0 0.0 0.0
0.0 0.0 0.0
0.0 0.0 0.0
0.0 0.0 0.0
0.0 0.0 0.0
0.0 0.0 0.0
0.0 0.0 0.0
0.0 0.0 0.0
0.0 0.0 0.0
0.0 0.0 0.0
0.0 0.0 0.0
0.0 0.0 0.0
0.0 0.0 0.0
0.0 0.0 0.0
0.0 0.0 0.0
0.0 0.0 0.0
0.0 0.0 0.0
0.0 0.0 0.0
0.0 0.0 0.0
0.0 0.0 0.0
0.0 0.0 0.0
0.0 0.0 0.0
1.0 0.0 0.0
1.0 0.0 0.0
1.0 0.0 0.0
1.0 0.0 0.0
1.0 0.0 0.0
1.0 0.0 0.0
1.0 0.0 0.0
1.0 0.0 0.0
1.0 0.0 0.0
1.0 0.0 0.0
1.0 0.0 0.0
1.0 0.0 0.0
1.0 0.0 0.0
1.0 0.0 0.0
1.0 0.0 0.0
1.0 0.0 0.0
1.0 0.0 0.0
1.0 0.0 0.0
1.0 0.0 0.0
1.0 0.0 0.0
1.0 0.0 0.0
1.0 0.0 0.0
1.0 0.0 0.0
1.0 0.0 0.0
1.0 0.0 0.0
1.0 0.0 0.0
1.0 0.0 0.0
1.0 0.0 0.0
1.0 0.0 0.0
1.0 0.0 0.0
1.0 0.0 0.0
1.0 0.0 0.0
1.0 0.0 0.0
1.0 0.0 0.0
1.0 0.0 0.0
1.0 0.0 0.0
1.0 0.0 0.0
1.0 0.0 0.0
1.0 0.0 0.0
1.0 0.0 0.0
1.0 0.0 0.0
1.0 0.0 0.0
1.0 0.0 0.0
1.0 0.0 0.0
1.0 0.0 0.0
1.0 0.0 0.0
1.0 0.0 0.0
1.0 0.0 0.0
1.0 0.0 0.0
1.0 0.0 0.0
1.0 0.0 0.0
1.0 0.0 0.0
0.0 0.0 0.0
0.0 0.0 0.0
0.0 0.0 0.0
0.0 0.0 0.0
0.0 0.0 0.0
0.0 0.0 0.0
0.0 0.0 0.0
0.0 0.0 0.0
0.0 0.0 0.0
0.0 0.0 0.0
0.0 0.0 0.0
0.0 0.0 0.0
0.0 0.0 0.0
0.0 0.0 0.0
0.0 0.0 0.0
0.0 0.0 0.0
0.0 0.0 0.0
0.0 0.0 0.0
0.0 0.0 0.0
0.0 0.0 0.0
0.0 0.0 0.0
0.0 0.0 0.0
0.0 0.0 0.0
0.0 0.0 0.0
0.0 0.0 0.0
0.0 0.0 0.0
0.0 0.0 0.0
0.0 0.0 0.0
0.0 0.0 0.0
0.0 0.0 0.0
0.0 0.0 0.0
0.0 0.0 0.0
0.0 0.0 0.0
0.0 0.0 0.0
0.0 0.0 0.0
0.0 0.0 0.0
0.0 0.0 0.0
0.0 0.0 0.0
0.0 0.0 0.0
0.0 0.0 0.0
0.0 0.0 0.0
0.0 0.0 0.0
0.0 0.0 0.0
0.0 0.0 0.0
0.0 0.0 0.0
0.0 0.0 0.0
0.0 0.0 0.0
0.0 0.0 0.0
0.0 0.0 0.0
0.0 0.0 0.0
0.0 0.0 0.0
0.0 0.0 0.0
-0.211902717507 0.0526799322209 0.0
-0.112025567009 -0.165703810736 0.0
-0.0596057179017 0.228589772867 0.0
-0.111715334334 -0.0741640985868 0.0
-0.0944454538318 0.0656212471743 0.0
0.0727482419667 0.105049278821 0.0
-0.0782069732885 0.168850068808 0.0
-0.184128909687 -0.232038862354 0.0
-0.112881562441 0.000141056334403 0.0
0.0350252110122 -0.3093457088 0.0
-0.0604109028931 0.245258105663 0.0
-0.0210106854798 -0.0213177666822 0.0
-0.0270304246265 0.0233283360248 0.0
-0.14830383337 0.0353824434109 0.0
-0.134900182069 0.173779017779 0.0
-0.219429486244 -0.0957150492486 0.0
-0.167651023014 0.0486538339908 0.0
0.264905256996 -0.00883067615484 0.0
-0.0426058177623 0.215550837324 0.0
-0.059123468088 -0.0993788880588 0.0
-0.0670700070868 0.0159720890891 0.0
-0.161675704131 -0.389237037541 0.0
0.116389769298 0.131292018977 0.0
-0.0646956318486 -0.018833722664 0.0
-0.0415594099528 0.0879356098706 0.0
-0.232813815192 -0.156534252955 0.0
-0.0980016063205 0.151807999573 0.0
-0.140544252774 0.122628126508 0.0
-0.165580587584 -0.0335539810178 0.0
0.380077532731 0.036302367472 0.0
-0.0278770680996 0.149444746258 0.0
-0.0593817526897 -0.15373068738 0.0
-0.0625572599712 0.00254611633907 0.0
0.372642092457 -0.0694647896034 0.0
-0.0347371120345 0.224989212404 0.0
-0.017866174605 -0.034785706701 0.0
-0.035194047497 0.0116260342744 0.0
-0.114474986453 -0.48926258778 0.0
-0.0282449636156 -0.0119428184792 0.0
0.117731152363 0.128717008684 0.0
-0.0185613169412 0.0400302762884 0.0
-0.00713072452352 0.0130453699193 0.0
-0.0860194603982 0.215243937328 0.0
-0.149858726277 -0.142210296403 0.0
-0.117856443584 0.033579978345 0.0
-0.236339013169 -0.0429605880393 0.0
-0.205418750168 0.00262246051038 0.0
-0.00232734338089 -0.00266818387477 0.0
-0.00530206997757 0.00506911050519 0.0
0.069866480921 -0.372258613217 0.0
-0.0780961751557 0.253211011176 0.0
-0.0166382326413 0.183662997473 0.0
-0.091651604493 0.108705916496 0.0
-0.0726761176479 -0.239068381479 0.0
0.381544481409 0.0531733075229 0.0
-0.0517398998901 -0.00466886986377 0.0
-0.0219723839381 0.0971100880881 0.0
0.0647061394177 -0.157043524138 0.0
-0.0549833868249 0.249794652106 0.0
-0.0544726929903 -0.056409528238 0.0
-0.0583454244617 0.0351954983839 0.0
-0.135881239574 -0.353121674539 0.0
-0.0183312765225 0.210324807253 0.0
-0.0618061468732 -0.0374558816395 0.0
-0.0540250190435 0.0608532893111 0.0
-0.170159937014 0.097789481133 0.0
-0.174841689286 0.116455085129 0.0
-0.210033065722 -0.276788880237 0.0
-0.112140575063 -0.0397408211062 0.0
-0.0927189977868 0.20144268144 0.0
-0.233030175962 -0.162637350161 0.0
-0.131671465352 0.0803498100394 0.0
-0.158179384691 0.0079050874356 0.0
0.381171525036 -0.117525372461 0.0
-0.0500118557347 0.238239253719 0.0
-0.00537464459022 -0.00965655705406 0.0
-0.0147069179303 0.00662197733735 0.0
-0.00919469655552 -0.00597518879726 0.0
-0.0818583945535 -0.527000744395 0.0
-0.00880415956585 0.015584057873 0.0
0.0964694423658 0.14832094171 0.0
-0.158468211956 -0.0799328172055 0.0
-0.0626474720848 0.0973800129947 0.0
-0.118117965397 0.172251214744 0.0
-0.169762033729 -0.0801142215142 0.0
0.564679943685 0.00271192836373 0.0
-0.0154993853477 0.142316746896 0.0
-0.0202681864805 -0.0658210471154 0.0
-0.040197856427 0.00385114078896 0.0
-0.0683026512776 -0.329963730832 0.0
-0.0299880577941 -0.00599974850464 0.0
0.383549201274 0.0584278056759 0.0
-0.012441874459 0.0496184889373 0.0
-0.173144765412 -0.308913899238 0.0
0.129632456264 0.118212370716 0.0
-0.0900075797036 -0.0117631641765 0.0
-0.0557926669603 0.12958679663 0.0
0.15434945511 0.0496893741932 0.0
-0.0602982804278 0.197268878967 0.0
-0.110663646486 -0.167191498697 0.0
-0.0949315302648 0.0118963909739 0.0
-0.19090328006 0.0625606314598 0.0
-0.0959822717866 -0.102424794326 0.0
-0.0851329716073 0.0347613966332 0.0
0.0626165137297 -0.0572906378818 0.0
-0.0634936318241 0.237818080264 0.0
-0.230039375455 -0.0302509393251 0.0
0.587382085715 -0.0149446901384 0.0
-0.0142571410985 0.157196745926 0.0
-0.0111080430493 -0.0350346552976 0.0
-0.0306337767371 0.00485627350091 0.0
-0.226828207928 -0.25141794592 0.0
-0.128484243608 -0.020509085917 0.0
-0.14355119247 0.149726797038 0.0
-0.0235354609845 0.150987192377 0.0
-0.105676735316 0.141354416007 0.0
-0.212623877849 -0.0480850441099 0.0
-0.204147110431 -0.0467974389239 0.0
-0.162099088138 0.0860801051535 0.0
-0.207638146473 0.0198851956045 0.0
-0.181910360787 0.108889583004 0.0
0.576968868804 0.0186451348264 0.0
-0.0113712599942 0.092203248877 0.0
-0.0266830155056 -0.127328533533 0.0
-0.0393652304185 -0.000596662126169 0.0
0.206573478591 0.0824293588218 0.0
-0.0481689099823 0.15190449699 0.0
-0.127110593479 -0.236763603569 0.0
-0.085640039528 -0.001033772083 0.0
0.23584797621 -0.0654552700514 0.0
-0.04520190252 0.236839849276 0.0
-0.0437047334765 -0.065913056628 0.0
-0.0567399849441 0.0209082696038 0.0
-0.0949133972107 -0.409929159252 0.0
-0.0189643873034 0.206720428288 0.0
-0.0348626366527 -0.0245175825711 0.0
-0.0329628318799 0.0395322204586 0.0
-0.0266875802371 0.207348653701 0.0
-0.0780912607433 0.0811754969648 0.0
-0.11946626993 0.0561894504671 0.0
-0.0359776244416 -0.211614116315 0.0
-0.0297608346438 -0.00309483341946 0.0
0.540957266573 0.0279722759702 0.0
-0.00902136983896 0.0558174101986 0.0
-0.0831832339303 0.222963473172 0.0
-0.193378896213 -0.180963272655 0.0
-0.142659898174 0.0310262452233 0.0
0.000128715450814 2.62154550176e-05 0.0
-0.000775253577608 0.000831678413045 0.0
0.0823035754435 -0.347750032155 0.0
-0.0646676689731 0.270187974709 0.0
0.647252086247 0.00898301082033 0.0
-0.00874395916411 0.101405756339 0.0
-0.0154117262877 -0.0744778410216 0.0
-0.034392472702 0.00105325613276 0.0
0.608868163455 -0.0302011399616 0.0
-0.0147891695748 0.165551777474 0.0
-0.00412056693893 -0.0112846343305 0.0
-0.0155131806864 0.00344434440216 0.0
-0.0585702899953 -0.419638157555 0.0
-0.0109005926385 -0.00351086671756 0.0
0.358595521558 0.0645504229365 0.0
-0.00542638800812 0.0188665115997 0.0
0.167237006304 -0.166471751292 0.0
-0.0551677222235 0.25377589996 0.0
-0.0258209618902 -0.0343379098155 0.0
-0.0378928366627 0.0211771289206 0.0
-0.155915739911 -0.436718380831 0.0
0.0748380788938 0.15481692466 0.0
-0.051149595405 -0.0219820480813 0.0
-0.0356987198117 0.0638401125589 0.0
0.00940125650165 0.0748130319218 0.0
-0.0935659356659 0.191578725668 0.0
-0.141927517201 -0.101728748707 0.0
-0.134271530812 0.0931074927198 0.0
-0.145728047689 0.151365425996 0.0
-0.0792372532627 -0.0621236234727 0.0
-0.185838405703 -0.175929156722 0.0
-0.137349776821 -0.0631373506257 0.0
-0.0732873916824 0.0459436749988 0.0
-0.110117550823 0.194301125162 0.0
-0.186163472965 -0.115427666086 0.0
-0.244154868382 -0.113233045525 0.0
-0.181908884171 -0.00981667565209 0.0
0.468532617292 -0.100922007169 0.0
-0.0487143241871 0.228515106988 0.0
-0.00111853501137 -0.00169596820194 0.0
-0.00485854017494 0.00221284993809 0.0
-0.00184145584687 -0.00146655169127 0.0
-0.0577968956502 -0.517987365471 0.0
-0.00257460787192 0.00504270914979 0.0
0.163564799718 0.121424062266 0.0
-0.0588900533979 0.207578499114 0.0
-0.119369125551 0.106201966923 0.0
-0.12313258547 0.0148576369825 0.0
0.340895171476 0.0231514023131 0.0
-0.0342113183103 0.180880747066 0.0
-0.0579478408752 -0.122972920939 0.0
-0.0652808098223 0.00743979532816 0.0
-0.0712996835212 -0.224838174343 0.0
-0.0496642453821 0.236658801395 0.0
-0.0746224960978 -0.0571798415209 0.0
-0.0683187718426 0.0524671825206 0.0
-0.164468477457 -0.270128435508 0.0
-0.0948547088883 -0.0504370254632 0.0
0.121769917692 0.00735347570144 0.0
-0.0637109268687 0.221793555949 0.0
-0.105989825123 -0.132881837096 0.0
-0.0936101215834 0.0233778614827 0.0
-0.0445509841927 -0.328069498019 0.0
-0.015843515956 -0.00325119499457 0.0
0.490291230721 0.0361411842565 0.0
-0.00553903977645 0.0270380187276 0.0
0.121015491848 -0.296776599579 0.0
-0.074532624163 0.258111246656 0.0
-0.00928841142926 -0.0106139934867 0.0
-0.0152968605948 0.0126411769208 0.0
0.0517601187651 0.158274074646 0.0
-0.0664439697277 0.109984452996 0.0
-0.240137719961 -0.0914408786542 0.0
-0.185130438113 0.0245432076978 0.0
-0.0615563553234 0.180630500578 0.0
-0.00263005084297 -0.26010955554 0.0
-0.0526821138769 0.243972797648 0.0
-0.0410923204528 -0.03791398085 0.0
-0.045275406519 0.0365781487439 0.0
-0.104743660545 0.0882129811535 0.0
-0.105011748792 -0.321828550367 0.0
0.278646247553 0.0790932214888 0.0
-0.0533615750725 -0.00908082268514 0.0
-0.0258416888822 0.0871063212909 0.0
-0.198196963295 -0.340933265885 0.0
-0.0904753067577 -0.0236195646501 0.0
-0.212477599851 0.0331049934083 0.0
-0.226959174686 0.00712350305147 0.0
-0.141800898886 0.0543309246733 0.0
-0.185367554209 -0.364224503117 0.0
-0.0781601207432 -0.0326799253259 0.0
0.0240754846101 0.17919452107 0.0
-0.0557483627483 0.0803071505538 0.0
-0.160441153551 0.143230076959 0.0
-0.018107646427 -0.120514712553 0.0
-0.0257273463339 -0.00107854709338 0.0
0.683821770198 0.0151615396724 0.0
-0.00538200915839 0.0545213062493 0.0
-0.107888277126 0.200709460935 0.0
-0.214052272221 -0.143030832609 0.0
-0.0755164356087 -0.460646172252 0.0
-0.014844677187 0.198731149097 0.0
-0.0193365616174 -0.0140728424569 0.0
-0.0193734328707 0.0257589754418 0.0
0.370831430431 0.0558989141782 0.0
-0.0263704136904 0.124781189893 0.0
-0.073022187631 -0.19808718887 0.0
-0.0598907719393 -0.00102451528956 0.0
-0.1970023438 0.0801161201623 0.0
0.0349480106824 0.148040423589 0.0
-0.0823381565169 0.1350601797 0.0
0.377001357435 -0.0314672636392 0.0
-0.0321390245443 0.20933350461 0.0
-0.0304593006784 -0.0605135705224 0.0
-0.0481133250054 0.0119294950049 0.0
-0.203233898511 0.0602608099731 0.0
0.702952504521 -0.0109660683674 0.0
-0.00700719018661 0.124552611993 0.0
-0.00382085098609 -0.0148081955748 0.0
-0.0171187680068 0.00258295681894 0.0
-0.162038973251 0.114736205292 0.0
0.732564606763 -0.00637191066941 0.0
-0.00733407538222 0.101695515383 0.0
-0.00534821917987 -0.0288869783693 0.0
-0.0226517730933 0.0013600149709 0.0
-0.240834208932 -0.18708866908 0.0
-0.155651214171 -0.0157610308169 0.0
-0.10564668007 0.177440685344 0.0
-0.131119333964 0.135859961563 0.0
-0.228333422631 -0.213281721202 0.0
-0.140143349973 -0.0382877245322 0.0
0.211621352174 -0.181197390195 0.0
-0.0607477509674 0.25550951911 0.0
-0.0131442896109 -0.0192569919111 0.0
-0.0243326428898 0.01380351479 0.0
-0.0152745909381 -0.121669062369 0.0
-0.0613353049427 0.240977516002 0.0
-0.0909089255748 -0.0808394140072 0.0
-0.0818744610358 0.0474178309593 0.0
-0.0277682614197 -0.45184043341 0.0
-0.00779578443607 -0.0069707733241 0.0
-0.0417818607671 0.21350736082 0.0
-0.0104697282024 0.0126379202089 0.0
-0.132060729327 -0.00935245233933 0.0
-0.220059153053 -0.215256160147 0.0
-0.135279151222 -0.00271388659603 0.0
-0.155274805846 -0.175549022879 0.0
-0.142573117663 0.100121123704 0.0
-0.196303900699 -0.272592164676 0.0
-0.108761355605 -0.0105878358292 0.0
-0.122933460349 0.182107387769 0.0
-0.171410785359 0.0600502235793 0.0
-0.00636038814099 0.117596462532 0.0
-0.0662343986609 0.138798064373 0.0
-0.10066055532 0.165951520502 0.0
-0.126622850286 0.146847349718 0.0
-0.208156170412 -0.104068101641 0.0
-0.201873758645 -0.0825390305411 0.0
-0.176532353718 -0.0577417608033 0.0
0.647186336779 -0.0332388327658 0.0
-0.0170180695312 0.152950186573 0.0
-0.00128545728727 -0.00364010741198 0.0
-0.00713120443421 0.00174521371099 0.0
-0.00387215712809 -0.00129357491583 0.0
-0.0414889596165 -0.403158053762 0.0
-0.00201201774347 0.00885352717083 0.0
0.432219313598 0.0519922834403 0.0
0.073999951013 0.0421987855576 0.0
-0.0737589025542 0.207389570315 0.0
-0.0206961843719 -0.186056538948 0.0
-0.017813479494 -0.00191129321799 0.0
0.656485183013 0.0143748207392 0.0
-0.00427530862106 0.0330013779644 0.0
0.240841999114 0.0588742757508 0.0
-0.0462697681151 0.171402497088 0.0
-0.107129615098 -0.192412025016 0.0
-0.0817290454078 0.00398027562637 0.0
0.790047890872 0.00351900464932 0.0
-0.00373452786134 0.0724198727279 0.0
-0.00586393730248 -0.0326591460984 0.0
-0.0198707270317 0.00101258701044 0.0
-0.116760106146 -0.440197183274 0.0
-0.0479096826187 -0.0138520490097 0.0
0.161125048767 0.11565909771 0.0
-0.0297589181862 0.0715749950099 0.0
0.24479333368 0.0836384983894 0.0
-0.112106605959 -0.270146714496 0.0
-0.0369677965783 0.123019980492 0.0
-0.0701256713141 -0.00592814868843 0.0
-0.153047635253 -0.344606804065 0.0
0.158928773101 0.116709096112 0.0
-0.0713960440012 -0.0138001263108 0.0
-0.0441756061879 0.105975245428 0.0
-0.0760290744973 0.230230131728 0.0
-0.102516552002 0.041151029786 0.0
-0.0988144683134 -0.510044984748 0.0
-0.0168465754832 -0.00836328406862 0.0
0.125712582962 0.12914302844 0.0
-0.0124050967727 0.025773674465 0.0
-0.166526547607 0.0248609462012 0.0
0.370947468642 -0.103129653657 0.0
-0.0425819246043 0.234214396313 0.0
-0.00946038091395 -0.0175734502018 0.0
-0.0225578424862 0.00900711677584 0.0
-0.179202156828 0.0946364832847 0.0
-0.221832035493 -0.054181855888 0.0
-0.152699255318 0.0742287199851 0.0
0.4130264626 0.000310994286155 0.0
-0.0270007921183 0.184594345276 0.0
-0.0356750591656 -0.0827256840277 0.0
-0.0531567054124 0.00849762254032 0.0
-0.000153307918915 8.20113709485e-05 0.0
-0.00117539353044 0.000906069390779 0.0
0.379002136053 -0.155712386825 0.0
0.000288567889905 -0.000297244360556 0.0
-0.0684057939858 0.266885448282 0.0
-0.0387107238517 -0.488854745605 0.0
-0.000818846909421 0.00142728350813 0.0
0.21185070886 0.114539500646 0.0
-0.107908515528 0.0188672494979 0.0
-0.0673077405867 -0.0917525718578 0.0
-0.0726085052925 0.0240513816658 0.0
0.0920598242116 0.0732016242763 0.0
-0.0738638172872 0.189797643676 0.0
-0.106502032952 0.0718990173204 0.0
-0.129458090751 0.173209275218 0.0
-0.138096756861 -0.406572081639 0.0
-0.0344466511346 -0.0106722947982 0.0
0.219662912147 0.0945421548619 0.0
-0.0191703252504 0.0523761226345 0.0
0.167391845942 -0.0458859602728 0.0
-0.0526576042076 0.236443825804 0.0
-0.141786350471 -0.0817433057656 0.0
-0.11653550558 0.0732870449761 0.0
-0.178492690816 0.0648078166533 0.0
0.483723951135 0.015893331164 0.0
-0.0208673814698 0.146142716087 0.0
-0.0348649227111 -0.10231568352 0.0
-0.0502955585893 0.00325483926085 0.0
0.110454407218 0.111528587361 0.0
-0.0662136647508 0.151707519745 0.0
-0.216743244774 -0.0234921273958 0.0
-0.138222809703 -0.114180122116 0.0
-0.105802020772 0.0086306364783 0.0
-0.141689558552 -0.206262001418 0.0
-0.19245535209 0.00236956025335 0.0
-0.0764056142138 -0.00839318122688 0.0
-0.195346530269 0.0306324752997 0.0
0.0129907571777 -0.0287812280982 0.0
-0.128367127797 -0.119283022823 0.0
-0.0740173251498 0.220329460097 0.0
-0.180041239786 -0.0477388753335 0.0
0.209625427338 0.0223490244964 0.0
-0.0507601868163 0.207435454346 0.0
-0.0842671066451 -0.137578729171 0.0
-0.0808011931256 0.0149122731521 0.0
-0.0976988119778 0.209993997233 0.0
-0.190361732917 -0.145448268815 0.0
0.0014870268649 0.185738392658 0.0
-0.075454232004 0.0974483086285 0.0
-0.217402971522 -0.294821657843 0.0
-0.11068292534 -0.0277590632147 0.0
0.789999511736 0.00846166043385 0.0
-0.00195398002589 0.0564451891563 0.0
-0.00704194842865 -0.0506420262781 0.0
-0.0196979390007 0.000552353020732 0.0
-0.0678950955893 -0.0787952222987 0.0
-0.071501617005 0.0328348294913 0.0
-0.165316127401 0.122091379712 0.0
0.0948072224648 -0.0937084871628 0.0
-0.0561966322591 0.245361367208 0.0
-0.223022083202 -0.0262441589771 0.0
-0.225753362652 0.0061628507382 0.0
-0.23833896319 -0.0496753036103 0.0
-0.131469572994 0.0397611885208 0.0
-0.118494789256 0.127263709554 0.0
-0.234234134153 -0.101230104481 0.0
-0.2011876106 -0.0190750845826 0.0
-0.0769357891961 -0.295116199 0.0
-0.0405640119386 0.230385157662 0.0
-0.0566983931697 -0.0419779578062 0.0
-0.0550680978497 0.0505917531018 0.0
-0.141476597228 -0.417600352658 0.0
0.0132752818466 0.186247854614 0.0
-0.0491240197903 -0.026947832713 0.0
-0.0386772726985 0.0551416206595 0.0
-0.141823804153 0.0155313543308 0.0
0.243683712889 -0.0984866041188 0.0
-0.0460110067633 0.243610560771 0.0
-0.0305133108595 -0.0463484497449 0.0
-0.0452516861277 0.0192545517585 0.0
0.448651156688 -0.0382322417109 0.0
-0.0260455460441 0.200934911891 0.0
-0.0178554262034 -0.0408265889323 0.0
-0.0371907824142 0.00905657962822 0.0
0.0291685167581 0.132681174717 0.0
-0.0877452742636 0.152482487434 0.0
-0.0973389104237 0.0523088825492 0.0
-0.212005978586 -0.16113565931 0.0
-0.154174464981 -0.0516698175018 0.0
-0.106414537516 0.125334460344 0.0
-0.141623069997 0.14130110256 0.0
0.776157075878 -0.00446271709702 0.0
-0.00386697364952 0.0913930193128 0.0
-0.00229055406815 -0.0142873701393 0.0
-0.0145961047823 0.00117365801772 0.0
-0.06851365208 0.234716998338 0.0
-0.144452555059 0.160726033248 0.0
-0.0169645350643 -0.172008899585 0.0
-0.0115308238735 -0.000945501664761 0.0
0.704013260105 0.0158800551128 0.0
-0.00189653677462 0.0216618142135 0.0
0.547261323606 -0.00618431236101 0.0
-0.0169895908474 0.157976771709 0.0
-0.018349681025 -0.053951281705 0.0
-0.0386254545751 0.00528478181082 0.0
-0.0590528195998 0.160864243997 0.0
-0.0306192820778 0.170095061747 0.0
-0.042934872583 0.2232381062 0.0
-0.0774707594386 0.0684029650899 0.0
-0.225872781986 -0.00275107264989 0.0
0.288475138391 -0.189633423804 0.0
-0.0709681255626 0.260021415684 0.0
-0.00398784969989 -0.00570183102799 0.0
-0.0100677919332 0.00613048649304 0.0
0.527303262463 0.0244411027138 0.0
-0.0166703724165 0.117313548465 0.0
-0.0357534522918 -0.119679770941 0.0
-0.0459686444601 0.00104281577036 0.0
0.142315984338 0.0862986111871 0.0