# vtk DataFile Version 2.0
2D Simulation Python
ASCII
DATASET UNSTRUCTURED_GRID
FIELD FieldData 1
NODES 1 2 int
3798 7382

POINTS 3798 double
0.0 0.0 0.0
1.0 0.0 0.0
1.0 1.0 0.0
0.0 1.0 0.0
0.01886792452826637 0.0 0.0
0.03773584905653053 0.0 0.0
0.05660377358479097 0.0 0.0
0.07547169811305962 0.0 0.0
0.09433962264133271 0.0 0.0
0.1132075471696058 0.0 0.0
0.1320754716978688 0.0 0.0
0.1509433962261159 0.0 0.0
0.1698113207543628 0.0 0.0
0.1886792452826097 0.0 0.0
0.2075471698108566 0.0 0.0
0.2264150943391035 0.0 0.0
0.2452830188673504 0.0 0.0
0.2641509433955972 0.0 0.0
0.2830188679238441 0.0 0.0
0.301886792452091 0.0 0.0
0.3207547169803379 0.0 0.0
0.3396226415085848 0.0 0.0
0.3584905660368317 0.0 0.0
0.3773584905650785 0.0 0.0
0.3962264150933255 0.0 0.0
0.4150943396215723 0.0 0.0
0.4339622641498192 0.0 0.0
0.4528301886780661 0.0 0.0
0.4716981132063129 0.0 0.0
0.4905660377345599 0.0 0.0
0.5094339622628591 0.0 0.0
0.5283018867912108 0.0 0.0
0.5471698113195625 0.0 0.0
0.5660377358479143 0.0 0.0
0.5849056603762659 0.0 0.0
0.6037735849046176 0.0 0.0
0.6226415094329693 0.0 0.0
0.6415094339613208 0.0 0.0
0.6603773584896723 0.0 0.0
0.6792452830180238 0.0 0.0
0.6981132075463754 0.0 0.0
0.7169811320747269 0.0 0.0
0.7358490566030784 0.0 0.0
0.7547169811314299 0.0 0.0
0.7735849056597816 0.0 0.0
0.7924528301881331 0.0 0.0
0.8113207547164847 0.0 0.0
0.8301886792448361 0.0 0.0
0.8490566037731877 0.0 0.0
0.8679245283015392 0.0 0.0
0.8867924528298908 0.0 0.0
0.9056603773582425 0.0 0.0
0.9245283018865939 0.0 0.0
0.9433962264149454 0.0 0.0
0.962264150943297 0.0 0.0
0.9811320754716486 0.0 0.0
1.0 0.01886792452826637 0.0
1.0 0.03773584905653053 0.0
1.0 0.05660377358479097 0.0
1.0 0.07547169811305962 0.0
1.0 0.09433962264133271 0.0
1.0 0.1132075471696058 0.0
1.0 0.1320754716978688 0.0
1.0 0.1509433962261159 0.0
1.0 0.1698113207543628 0.0
1.0 0.1886792452826097 0.0
1.0 0.2075471698108566 0.0
1.0 0.2264150943391035 0.0
1.0 0.2452830188673504 0.0
1.0 0.2641509433955972 0.0
1.0 0.2830188679238441 0.0
1.0 0.301886792452091 0.0
1.0 0.3207547169803379 0.0
1.0 0.3396226415085848 0.0
1.0 0.3584905660368317 0.0
1.0 0.3773584905650785 0.0
1.0 0.3962264150933255 0.0
1.0 0.4150943396215723 0.0
1.0 0.4339622641498192 0.0
1.0 0.4528301886780661 0.0
1.0 0.4716981132063129 0.0
1.0 0.4905660377345599 0.0
1.0 0.5094339622628591 0.0
1.0 0.5283018867912108 0.0
1.0 0.5471698113195625 0.0
1.0 0.5660377358479143 0.0
1.0 0.5849056603762659 0.0
1.0 0.6037735849046176 0.0
1.0 0.6226415094329693 0.0
1.0 0.6415094339613208 0.0
1.0 0.6603773584896723 0.0
1.0 0.6792452830180238 0.0
1.0 0.6981132075463754 0.0
1.0 0.7169811320747269 0.0
1.0 0.7358490566030784 0.0
1.0 0.7547169811314299 0.0
1.0 0.7735849056597816 0.0
1.0 0.7924528301881331 0.0
1.0 0.8113207547164847 0.0
1.0 0.8301886792448361 0.0
1.0 0.8490566037731877 0.0
1.0 0.8679245283015392 0.0
1.0 0.8867924528298908 0.0
1.0 0.9056603773582425 0.0
1.0 0.9245283018865939 0.0
1.0 0.9433962264149454 0.0
1.0 0.962264150943297 0.0
1.0 0.9811320754716486 0.0
0.9811320754716195 1.0 0.0
0.9622641509432391 1.0 0.0
0.9433962264148587 1.0 0.0
0.9245283018864782 1.0 0.0
0.9056603773580978 1.0 0.0
0.8867924528297173 1.0 0.0
0.8679245283014174 1.0 0.0
0.8490566037732444 1.0 0.0
0.8301886792450734 1.0 0.0
0.8113207547169025 1.0 0.0
0.7924528301887315 1.0 0.0
0.7735849056605606 1.0 0.0
0.7547169811323896 1.0 0.0
0.7358490566042186 1.0 0.0
0.7169811320760476 1.0 0.0
0.6981132075478766 1.0 0.0
0.6792452830197057 1.0 0.0
0.6603773584915346 1.0 0.0
0.6415094339633636 1.0 0.0
0.6226415094351925 1.0 0.0
0.6037735849070215 1.0 0.0
0.5849056603788504 1.0 0.0
0.5660377358506794 1.0 0.0
0.5471698113225083 1.0 0.0
0.5283018867943372 1.0 0.0
0.5094339622661662 1.0 0.0
0.4905660377378905 1.0 0.0
0.4716981132095099 1.0 0.0
0.4528301886811295 1.0 0.0
0.4339622641527489 1.0 0.0
0.4150943396243684 1.0 0.0
0.3962264150959879 1.0 0.0
0.3773584905676074 1.0 0.0
0.358490566039227 1.0 0.0
0.3396226415108468 1.0 0.0
0.3207547169824663 1.0 0.0
0.3018867924540859 1.0 0.0
0.2830188679257056 1.0 0.0
0.2641509433973251 1.0 0.0
0.2452830188689448 1.0 0.0
0.2264150943405645 1.0 0.0
0.2075471698121841 1.0 0.0
0.1886792452838036 1.0 0.0
0.1698113207554234 1.0 0.0
0.150943396227043 1.0 0.0
0.1320754716986625 1.0 0.0
0.1132075471702823 1.0 0.0
0.09433962264190188 1.0 0.0
0.0754716981135215 1.0 0.0
0.05660377358514113 1.0 0.0
0.03773584905676075 1.0 0.0
0.01886792452838049 1.0 0.0
0.0 0.9811320754716195 0.0
0.0 0.9622641509432391 0.0
0.0 0.9433962264148587 0.0
0.0 0.9245283018864782 0.0
0.0 0.9056603773580978 0.0
0.0 0.8867924528297173 0.0
0.0 0.8679245283014174 0.0
0.0 0.8490566037732444 0.0
0.0 0.8301886792450734 0.0
0.0 0.8113207547169025 0.0
0.0 0.7924528301887315 0.0
0.0 0.7735849056605606 0.0
0.0 0.7547169811323896 0.0
0.0 0.7358490566042186 0.0
0.0 0.7169811320760476 0.0
0.0 0.6981132075478766 0.0
0.0 0.6792452830197057 0.0
0.0 0.6603773584915346 0.0
0.0 0.6415094339633636 0.0
0.0 0.6226415094351925 0.0
0.0 0.6037735849070215 0.0
0.0 0.5849056603788504 0.0
0.0 0.5660377358506794 0.0
0.0 0.5471698113225083 0.0
0.0 0.5283018867943372 0.0
0.0 0.5094339622661662 0.0
0.0 0.4905660377378905 0.0
0.0 0.4716981132095099 0.0
0.0 0.4528301886811295 0.0
0.0 0.4339622641527489 0.0
0.0 0.4150943396243684 0.0
0.0 0.3962264150959879 0.0
0.0 0.3773584905676074 0.0
0.0 0.358490566039227 0.0
0.0 0.3396226415108468 0.0
0.0 0.3207547169824663 0.0
0.0 0.3018867924540859 0.0
0.0 0.2830188679257056 0.0
0.0 0.2641509433973251 0.0
0.0 0.2452830188689448 0.0
0.0 0.2264150943405645 0.0
0.0 0.2075471698121841 0.0
0.0 0.1886792452838036 0.0
0.0 0.1698113207554234 0.0
0.0 0.150943396227043 0.0
0.0 0.1320754716986625 0.0
0.0 0.1132075471702823 0.0
0.0 0.09433962264190188 0.0
0.0 0.0754716981135215 0.0
0.0 0.05660377358514113 0.0
0.0 0.03773584905676075 0.0
0.0 0.01886792452838049 0.0
0.49961422419268997 0.4984293794066726 0.0
0.7093511500970902 0.706792936500378 0.0
0.29287482782244045 0.7110496278611782 0.0
0.7065208514432915 0.2921137893028175 0.0
0.2917146567058879 0.2951459957249887 0.0
0.5010883512796402 0.783530677658598 0.0
0.2164159732426224 0.5012876322837192 0.0
0.7820505253934122 0.4994927647991782 0.0
0.4969563419356505 0.21663804071479492 0.0
0.8269192007901067 0.8287013252031155 0.0
0.1712682973217082 0.8268730922835856 0.0
0.8299941553097447 0.17180608262880254 0.0
0.17180615988223974 0.17000622072452293 0.0
0.5640959313975822 0.6420224840910225 0.0
0.36076803388570655 0.5671667288006801 0.0
0.641160245161879 0.4320186669377829 0.0
0.4354935082651592 0.36378759861759746 0.0
0.6410454186381067 0.8479832937118897 0.0
0.1518368310809157 0.6410829539811169 0.0
0.8477907051244511 0.3598243790179788 0.0
0.35938579904680457 0.15130729784326102 0.0
0.8497305928919907 0.6399401683101269 0.0
0.3617952267412937 0.8474454291453152 0.0
0.6436051449793575 0.15189469658234833 0.0
0.15079737625026685 0.3588783576988489 0.0
0.6832039587940572 0.5823618751624478 0.0
0.4454396775914624 0.6627381531764 0.0
0.33424594078221964 0.4385872006022409 0.0
0.5773189844856303 0.3195812160927133 0.0
0.5368082180804761 0.8869865896668006 0.0
0.11301341973883329 0.5368082072162796 0.0
0.8863497125425446 0.46278650800142523 0.0
0.46231798559604276 0.1137357048419064 0.0
0.735504344602733 0.8878298811845817 0.0
0.11217246241749894 0.7355045289688809 0.0
0.8876386118329569 0.26464529586215935 0.0
0.26447675721717134 0.11218714573944835 0.0
0.8918893682153743 0.7430319146751548 0.0
0.7378676821853629 0.10938784471235846 0.0
0.2618554236513495 0.8907466135047526 0.0
0.10927139946373736 0.2618885660485004 0.0
0.6036356850091371 0.740958324467786 0.0
0.2594197395873493 0.6024781400358834 0.0
0.7471835282093033 0.3970113006814754 0.0
0.39635295506120277 0.25856270415268773 0.0
0.5973835830959042 0.5282120591728078 0.0
0.5269880475515504 0.40324375384926064 0.0
0.900344051349824 0.09737126935472232 0.0
0.09737116846728401 0.09965601878423913 0.0
0.9027736024298996 0.9004379740924425 0.0
0.09965486244215357 0.9026299600545967 0.0
0.3830054844266893 0.7484876862569074 0.0
0.25074672726321157 0.3828059459383084 0.0
0.9036934196956306 0.5634343341860331 0.0
0.436167023944368 0.903809418557912 0.0
0.5634650142808684 0.09627038765249357 0.0
0.09611428176536896 0.43622888244072316 0.0
0.7383691909253696 0.7977530090605311 0.0
0.20213608094646243 0.7381864461382426 0.0
0.7965379729869333 0.25833485688790847 0.0
0.25825176979143294 0.20343822649683996 0.0
0.8016496201203362 0.7232057683389532 0.0
0.27776554876540255 0.7985644202275013 0.0
0.7230025466734626 0.19888476423555862 0.0
0.20134253349952064 0.2778412830843111 0.0
0.48914355287031674 0.5909586444150075 0.0
0.4113298235007088 0.49483643887222295 0.0
0.7553604068177817 0.6323161440656005 0.0
0.6323326401346647 0.2446343261447706 0.0
0.3558016573651024 0.6535168196958461 0.0
0.6947272998992697 0.49553252027219197 0.0
0.34695271761644664 0.35520182412877976 0.0
0.49374473330545476 0.3082796821038452 0.0
0.8187154539118972 0.9148861354006228 0.0
0.08511383208187207 0.8187154148724425 0.0
0.9150328940734902 0.18133025458140606 0.0
0.18128457425270267 0.0851129709589244 0.0
0.8187403987114168 0.08420346742597412 0.0
0.9157746719419576 0.8186373542270347 0.0
0.08420340483892619 0.18125955209024192 0.0
0.18126035834340148 0.9157847355643594 0.0
0.6491759294498078 0.6582605894876106 0.0
0.518075563238964 0.700155561243168 0.0
0.2994944160935228 0.5182519107636043 0.0
0.6529572976260253 0.35254842454839763 0.0
0.6097401473872117 0.9217208439447089 0.0
0.07827850601264716 0.6097398708442259 0.0
0.9217267277120186 0.3902548071573767 0.0
0.39024121399465406 0.07825838690395835 0.0
0.9257398577009572 0.6657069734842804 0.0
0.6657516430505073 0.07518432263878908 0.0
0.3341866530930919 0.9246109018771522 0.0
0.07542270790545244 0.3342243925275289 0.0
0.8225798016625723 0.5644120390192462 0.0
0.43501894509773303 0.8272239480204406 0.0
0.5644015723185061 0.17743228884395235 0.0
0.1728552698143025 0.4351788286843611 0.0
0.5668992511560398 0.812632221934239 0.0
[...]
POINT_DATA 3798
VECTORS vector double
0.0 0.0 0.0
0.0 0.0 0.0
0.0 0.0 0.0
0.0 0.0 0.0
0.0 0.0 0.0
0.0 0.0 0.0
0.0 0.0 0.0
0.0 0.0 0.0
0.0 0.0 0.0
0.0 0.0 0.0
0.0 0.0 0.0
0.0 0.0 0.0
0.0 0.0 0.0
0.0 0.0 0.0
0.0 0.0 0.0
0.0 0.0 0.0
0.0 0.0 0.0
0.0 0.0 0.0
0.0 0.0 0.0
0.0 0.0 0.0
0.0 0.0 0.0
0.0 0.0 0.0
0.0 0.0 0.0
0.0 0.0 0.0
0.0 0.0 0.0
0.0 0.0 0.0
0.0 0.0 0.0
0.0 0.0 0.0
0.0 0.0 0.0
0.0 0.0 0.0
0.0 0.0 0.0
0.0 0.0 0.0
0.0 0.0 0.0
0.0 0.0 0.0
0.0 0.0 0.0
0.0 0.0 0.0
0.0 0.0 0.0
0.0 0.0 0.0
0.0 0.0 0.0
0.0 0.0 0.0
0.0 0.0 0.0
0.0 0.0 0.0
0.0 0.0 0.0
0.0 0.0 0.0
0.0 0.0 0.0
0.0 0.0 0.0
0.0 0.0 0.0
0.0 0.0 0.0
0.0 0.0 0.0
0.0 0.0 0.0
0.0 0.0 0.0
0.0 0.0 0.0
0.0 0.0 0.0
0.0 0.0 0.0
0.0 0.0 0.0
0.0 0.0 0.0
0.0 0.0 0.0
0.0 0.0 0.0
0.0 0.0 0.0
0.0 0.0 0.0
0.0 0.0 0.0
0.0 0.0 0.0
0.0 0.0 0.0
0.0 0.0 0.0
0.0 0.0 0.0
0.0 0.0 0.0
0.0 0.0 0.0
0.0 0.0 0.0
0.0 0.0 0.0
0.0 0.0 0.0
0.0 0.0 0.0
0.0 0.0 0.0
0.0 0.0 0.0
0.0 0.0 0.0
0.0 0.0 0.0
0.0 0.0 0.0
0.0 0.0 0.0
0.0 0.0 0.0
0.0 0.0 0.0
0.0 0.0 0.0
0.0 0.0 0.0
0.0 0.0 0.0
0.0 0.0 0.0
0.0 0.0 0.0
0.0 0.0 0.0
0.0 0.0 0.0
0.0 0.0 0.0
0.0 0.0 0.0
0.0 0.0 0.0
0.0 0.0 0.0
0.0 0.0 0.0
0.0 0.0 0.0
0.0 0.0 0.0
0.0 0.0 0.0
0.0 0.0 0.0
0.0 0.0 0.0
0.0 0.0 0.0
0.0 0.0 0.0
0.0 0.0 0.0
0.0 0.0 0.0
0.0 0.0 0.0
0.0 0.0 0.0
0.0 0.0 0.0
0.0 0.0 0.0
0.0 0.0 0.0
0.0 0.0 0.0
0.0 0.0 0.0
0.0 0.0 0.0
1.0 0.0 0.0
1.0 0.0 0.0
1.0 0.0 0.0
1.0 0.0 0.0
1.0 0.0 0.0
1.0 0.0 0.0
1.0 0.0 0.0
1.0 0.0 0.0
1.0 0.0 0.0
1.0 0.0 0.0
1.0 0.0 0.0
1.0 0.0 0.0
1.0 0.0 0.0
1.0 0.0 0.0
1.0 0.0 0.0
1.0 0.0 0.0
1.0 0.0 0.0
1.0 0.0 0.0
1.0 0.0 0.0
1.0 0.0 0.0
1.0 0.0 0.0
1.0 0.0 0.0
1.0 0.0 0.0
1.0 0.0 0.0
1.0 0.0 0.0
1.0 0.0 0.0
1.0 0.0 0.0
1.0 0.0 0.0
1.0 0.0 0.0
1.0 0.0 0.0
1.0 0.0 0.0
1.0 0.0 0.0
1.0 0.0 0.0
1.0 0.0 0.0
1.0 0.0 0.0
1.0 0.0 0.0
1.0 0.0 0.0
1.0 0.0 0.0
1.0 0.0 0.0
1.0 0.0 0.0
1.0 0.0 0.0
1.0 0.0 0.0
1.0 0.0 0.0
1.0 0.0 0.0
1.0 0.0 0.0
1.0 0.0 0.0
1.0 0.0 0.0
1.0 0.0 0.0
1.0 0.0 0.0
1.0 0.0 0.0
1.0 0.0 0.0
1.0 0.0 0.0
0.0 0.0 0.0
0.0 0.0 0.0
0.0 0.0 0.0
0.0 0.0 0.0
0.0 0.0 0.0
0.0 0.0 0.0
0.0 0.0 0.0
0.0 0.0 0.0
0.0 0.0 0.0
0.0 0.0 0.0
0.0 0.0 0.0
0.0 0.0 0.0
0.0 0.0 0.0
0.0 0.0 0.0
0.0 0.0 0.0
0.0 0.0 0.0
0.0 0.0 0.0
0.0 0.0 0.0
0.0 0.0 0.0
0.0 0.0 0.0
0.0 0.0 0.0
0.0 0.0 0.0
0.0 0.0 0.0
0.0 0.0 0.0
0.0 0.0 0.0
0.0 0.0 0.0
0.0 0.0 0.0
0.0 0.0 0.0
0.0 0.0 0.0
0.0 0.0 0.0
0.0 0.0 0.0
0.0 0.0 0.0
0.0 0.0 0.0
0.0 0.0 0.0
0.0 0.0 0.0
0.0 0.0 0.0
0.0 0.0 0.0
0.0 0.0 0.0
0.0 0.0 0.0
0.0 0.0 0.0
0.0 0.0 0.0
0.0 0.0 0.0
0.0 0.0 0.0
0.0 0.0 0.0
0.0 0.0 0.0
0.0 0.0 0.0
0.0 0.0 0.0
0.0 0.0 0.0
0.0 0.0 0.0
0.0 0.0 0.0
0.0 0.0 0.0
0.0 0.0 0.0
-0.212984692257 0.0524165487877 0.0
-0.112281785755 -0.166757290426 0.0
-0.0585810109276 0.229374301794 0.0
-0.1131939819 -0.0750079119286 0.0
-0.0959067833343 0.0663437099529 0.0
0.0739243096346 0.104182807057 0.0
-0.0787394537173 0.170406095631 0.0
-0.185902837775 -0.233513273192 0.0
-0.11472148923 3.47525236556e-05 0.0
0.0312529924598 -0.308916009821 0.0
-0.0596743876351 0.24554107839 0.0
-0.0213094463651 -0.0213986547338 0.0
-0.0274146827309 0.0235144454223 0.0
-0.147794509349 0.0343854813639 0.0
-0.135156482001 0.174560639245 0.0
-0.221285652841 -0.096881189298 0.0
-0.169618716864 0.0489011630519 0.0
0.26225773519 -0.0102099052657 0.0
-0.0424413029493 0.216905172915 0.0
-0.0602311812258 -0.100076199626 0.0
-0.0681680399209 0.0161364255609 0.0
-0.162787997509 -0.389968939275 0.0
0.117895577634 0.131070720312 0.0
-0.0657073576029 -0.0190706603393 0.0
-0.0422102632352 0.0889350786144 0.0
-0.233697510627 -0.157854121353 0.0
-0.0975427783978 0.151582327888 0.0
-0.14184273864 0.123618583124 0.0
-0.16763279895 -0.0341605268666 0.0
0.380279777576 0.0352824924416 0.0
-0.0280212596677 0.150775859157 0.0
-0.0602286788185 -0.154510047488 0.0
-0.0635374379501 0.0025483608179 0.0
0.364975625511 -0.0704128333957 0.0
-0.0344004696359 0.225650268628 0.0
-0.018255518839 -0.0348942894698 0.0
-0.0355591360336 0.0117184353141 0.0
-0.117266611919 -0.48896476631 0.0
-0.0287867602397 -0.0120315473405 0.0
0.118646265482 0.128650195725 0.0
-0.0188921385052 0.0404228021243 0.0
-0.00732733608234 0.0118113742732 0.0
-0.0858445104388 0.21663082287 0.0
-0.151262186714 -0.143514057576 0.0
-0.119673417607 0.0338792991033 0.0
-0.237489878149 -0.0439624512699 0.0
-0.207654833953 0.0022254013061 0.0
-0.00226786906006 -0.0025415975318 0.0
-0.00525546095991 0.0049824456394 0.0
0.0573092408438 -0.370384475236 0.0
-0.0780711309802 0.252866860432 0.0
-0.0153487479786 0.183677851963 0.0
-0.0928286712918 0.10986569676 0.0
-0.0734316089776 -0.239739183289 0.0
0.382271376439 0.0523443659604 0.0
-0.0524136526479 -0.00471461338062 0.0
-0.0222451590566 0.0981366871922 0.0
0.0613343026258 -0.157811081845 0.0
-0.054190047593 0.250721225735 0.0
-0.0553365383834 -0.0568891669282 0.0
-0.0592750341077 0.0355779118812 0.0
-0.138333147829 -0.353543680599 0.0
-0.0170279882841 0.210718064204 0.0
-0.0628252318273 -0.0378575380721 0.0
-0.0549341105459 0.0615437439557 0.0
-0.169941008052 0.0974253539477 0.0
-0.17607057035 0.116910798594 0.0
-0.211141271967 -0.277920845684 0.0
-0.113803082355 -0.040299662225 0.0
-0.0920723197082 0.202017143006 0.0
-0.234392610143 -0.164071191862 0.0
-0.133482820892 0.081099124105 0.0
-0.160302098428 0.00776904250213 0.0
0.375227739614 -0.116330382675 0.0
-0.0497352697638 0.238203994103 0.0
-0.00544491225087 -0.00953717809732 0.0
-0.0147763214321 0.00659228435337 0.0
-0.00920069196466 -0.00595294036127 0.0
-0.0849678419986 -0.525668918432 0.0
-0.00891885400915 0.0156253551417 0.0
0.0966405537735 0.148183780404 0.0
-0.158296558047 -0.0811642700315 0.0
-0.0616779621032 0.0965215636036 0.0
-0.118685472369 0.173521526241 0.0
-0.171766186629 -0.0811304125693 0.0
0.5634047965 0.000995731538531 0.0
-0.0154889926497 0.143227707062 0.0
-0.0207086392706 -0.0660331006217 0.0
-0.0407102036566 0.00389355919224 0.0
-0.0692592830247 -0.329818033236 0.0
-0.030423068579 -0.00605441914882 0.0
0.384574842691 0.0580550936391 0.0
-0.0126543972108 0.0501153757924 0.0
-0.173631765394 -0.310158832113 0.0
0.130925734871 0.117663846296 0.0
-0.091343325487 -0.011969759951 0.0
-0.0564882843356 0.130968580898 0.0
0.155162094197 0.0485047419366 0.0
-0.0603461946685 0.198865332542 0.0
-0.111957080102 -0.168382818774 0.0
-0.0964240521449 0.0119777416653 0.0
-0.192951042003 0.0627118443243 0.0
-0.0973017544494 -0.103365982883 0.0
-0.0864971313428 0.0351368959216 0.0
0.0606660554108 -0.0584875002456 0.0
-0.0628735996457 0.239119083474 0.0
-0.232468164734 -0.0310308239781 0.0
0.583565631453 -0.0173171272197 0.0
-0.0141547720201 0.1578065584 0.0
-0.0113915115757 -0.0350462469149 0.0
-0.030860151207 0.00491141727141 0.0
-0.22791820193 -0.252835663446 0.0
-0.130406753486 -0.0208919234087 0.0
-0.14345110379 0.149888631214 0.0
-0.0221866069841 0.150571724546 0.0
-0.106653080128 0.142684844536 0.0
-0.212669116986 -0.0492299940186 0.0
-0.206478309805 -0.0476072726832 0.0
-0.163878644884 0.0866676540784 0.0
-0.208376481241 0.0190714846404 0.0
-0.183041112245 0.108910058379 0.0
0.576827052137 0.0178657766984 0.0
-0.0115449897886 0.0930261058708 0.0
-0.0276416568868 -0.12756210253 0.0
-0.0399209637102 -0.000646292285058 0.0
0.208073232078 0.0815857458597 0.0
-0.0485102151315 0.153399587082 0.0
-0.128025162578 -0.237976042669 0.0
-0.0869750545789 -0.00110173426346 0.0
0.232708476134 -0.066599818805 0.0
-0.0447389926574 0.237930466505 0.0
-0.0444814392943 -0.066370242929 0.0
-0.0576061766238 0.0211264144436 0.0
-0.0976920189027 -0.409798108454 0.0
-0.0179036876864 0.206979141168 0.0
-0.0354465134211 -0.0247128402882 0.0
-0.0335053141379 0.0399335539515 0.0
-0.0254136543273 0.207714253475 0.0
-0.0793016832347 0.0820910217268 0.0
-0.121225801629 0.0567462012001 0.0
-0.0368124514292 -0.211411499382 0.0
-0.0303942036991 -0.00303729569403 0.0
0.543034618382 0.0270037226668 0.0
-0.00918047308735 0.0563327534064 0.0
-0.0829779246147 0.223996289603 0.0
-0.195262709929 -0.182429154235 0.0
-0.144732713893 0.0312119464993 0.0
0.000149444648074 0.00024361879891 0.0
-0.000672719363418 0.000617253766053 0.0
0.0717340944617 -0.343647383359 0.0
-0.0644792866147 0.26958825717 0.0
0.649033836118 0.0078566902482 0.0
-0.00880504848806 0.10212971019 0.0
-0.0158279065449 -0.0745363700309 0.0
-0.0350933651663 0.00105184373012 0.0
0.604908192327 -0.032396684889 0.0
-0.0146563982596 0.165550370891 0.0
-0.00424467035225 -0.0110987114442 0.0
-0.0156209274629 0.00342394493805 0.0
-0.0604397330766 -0.417423805072 0.0
-0.0111791059653 -0.00352463158009 0.0
0.359473582181 0.0643786377293 0.0
-0.00551844715156 0.0189018981623 0.0
0.162338243527 -0.166740900683 0.0
-0.0545218626605 0.254380486916 0.0
-0.0262872585924 -0.0345140163803 0.0
-0.0384304595012 0.0213662116473 0.0
-0.157203384067 -0.436977709069 0.0
0.076170038553 0.154823633966 0.0
-0.0519069504188 -0.0222207415895 0.0
-0.0362759273964 0.0645534948124 0.0
0.00990240271417 0.0737539966936 0.0
-0.0939579505807 0.193062379831 0.0
-0.143790131651 -0.102830357862 0.0
-0.134187017379 0.0924319714737 0.0
-0.146818565287 0.15226715825 0.0
-0.0793930534594 -0.0633434784668 0.0
-0.186555081644 -0.177104841385 0.0
-0.139311593107 -0.0639630917266 0.0
-0.0728695749994 0.0448433071334 0.0
-0.110310772206 0.195512552574 0.0
-0.1880768069 -0.116685902938 0.0
-0.24517643284 -0.11450317504 0.0
-0.184258541007 -0.0102264281739 0.0
0.46249510006 -0.0992923772027 0.0
-0.0486549521046 0.228017332293 0.0
-0.00112247577786 -0.00146450253394 0.0
-0.00486417664033 0.00206405984478 0.0
-0.00181214619759 -0.00135157578567 0.0
-0.0653819172196 -0.515731770685 0.0
-0.00256162611205 0.00489677599016 0.0
0.163775939558 0.12101976291 0.0
-0.057849791732 0.208011137863 0.0
-0.120770127751 0.107231173791 0.0
-0.125065029325 0.0149130426831 0.0
0.340893265637 0.0218450972593 0.0
-0.0342129600578 0.182274170804 0.0
-0.0586701292304 -0.123710432705 0.0
-0.0662907201962 0.00750119445093 0.0
-0.0728753222041 -0.225568623917 0.0
-0.0485467593065 0.237407184343 0.0
-0.0758784886319 -0.0577772070335 0.0
-0.0694277169189 0.0530597538365 0.0
-0.166217234501 -0.271021811018 0.0
-0.0963704103211 -0.051052717622 0.0
0.120673205617 0.00607052573206 0.0
-0.0636351796222 0.223289860949 0.0
-0.107279219178 -0.133982849548 0.0
-0.0951058521003 0.0236024951759 0.0
-0.0461691727581 -0.326753886355 0.0
-0.0162871576892 -0.00323693972899 0.0
0.491838671432 0.0356817090073 0.0
-0.00564025488292 0.0271800821703 0.0
0.112858865729 -0.294973124007 0.0
-0.0741634612343 0.258087216381 0.0
-0.00941322374671 -0.0105497594493 0.0
-0.0154206347383 0.0126701805836 0.0
0.0532817353322 0.158088389407 0.0
-0.0673548487887 0.111201692675 0.0
-0.241649823278 -0.0926289723649 0.0
-0.187160169063 0.0244656270475 0.0
-0.0606047114664 0.180647439501 0.0
-0.00464226561462 -0.260393038851 0.0
-0.0516283609366 0.244585620445 0.0
-0.0417662929905 -0.0382210147466 0.0
-0.0460013004332 0.036960839879 0.0
-0.106198187739 0.0891462025788 0.0
-0.10607510796 -0.322503611966 0.0
0.279873522152 0.0785316430315 0.0
-0.0542153098517 -0.00918089099212 0.0
-0.0262403887657 0.0880719309943 0.0
-0.198795904117 -0.34202710259 0.0
-0.0918431685554 -0.0239644874245 0.0
-0.214201956972 0.0328557899962 0.0
-0.228026017589 0.00648304409202 0.0
-0.143715906238 0.0547736145688 0.0
-0.186735107352 -0.364975957402 0.0
-0.0793546224242 -0.0330897074487 0.0
0.0256504301666 0.179299732552 0.0
-0.0565853664373 0.0812253034907 0.0
-0.160995772038 0.143713726654 0.0
-0.0184179860534 -0.120170022824 0.0
-0.0263876842006 -0.000951334554869 0.0
0.686677649132 0.0134304004104 0.0
-0.00545904559237 0.054932585678 0.0
-0.107843287985 0.201632507251 0.0
-0.215559343933 -0.144411145118 0.0
-0.0795794341302 -0.459994302402 0.0
-0.0141708295901 0.198802666139 0.0
-0.0196079587073 -0.0141246081098 0.0
-0.019660944377 0.0259591026036 0.0
0.371538920642 0.0550855921683 0.0
-0.0265799041075 0.126016461473 0.0
-0.0736907088516 -0.198895024909 0.0
-0.0607265646517 -0.00106391378201 0.0
-0.198091200906 0.0801959670353 0.0
0.0365211927145 0.147620076679 0.0
-0.083238165159 0.136448982417 0.0
0.374582064836 -0.0329221092526 0.0
-0.0318519846484 0.210365244624 0.0
-0.0309815604496 -0.0608385537913 0.0
-0.0487921477558 0.0120501288083 0.0
-0.203933379897 0.0598201821839 0.0
0.704976367056 -0.0142853994156 0.0
-0.00692491415162 0.124645787979 0.0
-0.0039222600893 -0.0145852002918 0.0
-0.0174747881857 0.002588832478 0.0
-0.163308692822 0.115442241164 0.0
0.736193722594 -0.00912643823764 0.0
-0.00730908965793 0.102025326706 0.0
-0.00545720398724 -0.0286820215066 0.0
-0.0232327241138 0.00142702194491 0.0
-0.241386350689 -0.188508722114 0.0
-0.157671080652 -0.016152631202 0.0
-0.104723401149 0.177671494106 0.0
-0.130721718298 0.135625559108 0.0
-0.229108593768 -0.214593041631 0.0
-0.142084740409 -0.0388851386225 0.0
0.207061399526 -0.180553354485 0.0
-0.0602334420784 0.255770574504 0.0
-0.0133468356961 -0.0192611810124 0.0
-0.0246277509391 0.0138782438152 0.0
-0.0158381716632 -0.122712655875 0.0
-0.0603475142168 0.242004015996 0.0
-0.0921336052603 -0.0816499493897 0.0
-0.0831943965301 0.0479454869231 0.0
-0.0337667450863 -0.450242956308 0.0
-0.00783996969463 -0.00691193148088 0.0
-0.0415511790243 0.213364801751 0.0
-0.0105757785051 0.0126518765387 0.0
-0.132780836006 -0.0105245201107 0.0
-0.221075958633 -0.216758532696 0.0
-0.137189122862 -0.00290884060277 0.0
-0.156621255552 -0.176940681086 0.0
-0.144097894748 0.10096664393 0.0
-0.197676151143 -0.274008579227 0.0
-0.110468946645 -0.0108193662042 0.0
-0.122649570889 0.182688193854 0.0
-0.170893160922 0.0593055717969 0.0
-0.00497531726185 0.116831209598 0.0
-0.0656768055031 0.138297853205 0.0
-0.101337776964 0.167395131556 0.0
-0.127546703184 0.148051551214 0.0
-0.20794842231 -0.105329634515 0.0
-0.203707418924 -0.0836077606705 0.0
-0.178565497956 -0.0585842786692 0.0
0.665113120355 -0.0351668854391 0.0
-0.0169610536287 0.152510538823 0.0
-0.00133896238909 -0.00333126523002 0.0
-0.00804352632762 0.00166751009811 0.0
-0.00466185481489 -0.00131629250192 0.0
-0.044615676446 -0.398769918259 0.0
-0.00202382193632 0.00868733002104 0.0
0.434483320918 0.0517619302232 0.0
0.0746631567571 0.0409895589776 0.0
-0.0737181479317 0.208948227519 0.0
-0.0212630563005 -0.184977215199 0.0
-0.0186878443519 -0.00192092345709 0.0
0.659888087946 0.0139498226867 0.0
-0.00434696729554 0.0331689747316 0.0
0.240868657065 0.0578211335981 0.0
-0.0465612892039 0.172935716794 0.0
-0.108861551952 -0.193556279605 0.0
-0.0831166346601 0.00397868610698 0.0
0.796756339674 0.0014981581904 0.0
-0.00372908432563 0.0726728378853 0.0
-0.00598766009224 -0.0323647158892 0.0
-0.0207871852733 0.00105130026764 0.0
-0.11777599783 -0.440201162756 0.0
-0.0485998334831 -0.0140032068849 0.0
0.162513918972 0.115455571414 0.0
-0.0302555818967 0.0723808899051 0.0
0.245746270418 0.0829270737365 0.0
-0.113245063098 -0.271172026809 0.0
-0.0374123212065 0.124322016941 0.0
-0.0712296996781 -0.0060267893308 0.0
-0.15454605706 -0.345570384513 0.0
0.160173784156 0.116284936352 0.0
-0.0725008531184 -0.0139930147297 0.0
-0.0448189873692 0.107148832675 0.0
-0.0755294661751 0.231457136787 0.0
-0.104208177555 0.0415767317675 0.0
-0.100715316984 -0.509256171612 0.0
-0.0170334273004 -0.00839903380255 0.0
0.126253973636 0.12907601442 0.0
-0.0126120130704 0.0259654134629 0.0
-0.168629656756 0.0248785873504 0.0
0.362418233118 -0.103202656548 0.0
-0.0422574740048 0.234462401434 0.0
-0.00966014910339 -0.0175255096158 0.0
-0.0226948344712 0.00904062820304 0.0
-0.180798288504 0.0950636989061 0.0
-0.223661286086 -0.0551033094398 0.0
-0.154560808527 0.0748120431379 0.0
0.41191815193 -0.0012163162071 0.0
-0.026876438607 0.185782010908 0.0
-0.036253944721 -0.0831831548537 0.0
-0.053936536137 0.00858221860358 0.0
-0.000112516427006 0.000317393147942 0.0
-0.00139163607292 0.00070430101551 0.0
0.384938145957 -0.153102780582 0.0
-0.000187460581166 -0.000128313709139 0.0
-0.0684235743749 0.266234826605 0.0
-0.0510042878518 -0.4847796012 0.0
-0.000735479625199 0.00120612960434 0.0
0.212981805026 0.11404884235 0.0
-0.109571268018 0.0190122227823 0.0
-0.0684301703134 -0.0924986348328 0.0
-0.0737966445852 0.0243082766928 0.0
0.0909190839823 0.0721298086346 0.0
-0.0744530757824 0.191390618278 0.0
-0.106401956829 0.0709775188562 0.0
-0.130236615286 0.174259213031 0.0
-0.139321261304 -0.40704039195 0.0
-0.0349683591041 -0.0107675660765 0.0
0.220730390159 0.0943529478585 0.0
-0.0195086172465 0.0529337240937 0.0
0.165638696064 -0.0471254663903 0.0
-0.0522692281504 0.237743582585 0.0
-0.143756721424 -0.0827208086181 0.0
-0.118283788752 0.0740334035788 0.0
-0.180237474732 0.0651023378269 0.0
0.483038317815 0.0146285589244 0.0
-0.0209321336504 0.147288842353 0.0
-0.0355086898483 -0.102788030238 0.0
-0.0510299743557 0.00327719321859 0.0
0.111344806884 0.110808567637 0.0
-0.0668509073829 0.153218051015 0.0
-0.219266598256 -0.0241503112867 0.0
-0.140087606528 -0.115380653238 0.0
-0.107530793838 0.00864817741793 0.0
-0.143020285058 -0.207623799769 0.0
-0.192749947888 0.00137997869268 0.0
-0.0753899087021 -0.00960907469699 0.0
-0.197290661403 0.0305283193712 0.0
0.0132237590681 -0.0300254829322 0.0
-0.129881174164 -0.120428081241 0.0
-0.0734463678551 0.221101149428 0.0
-0.181168269837 -0.0489324171773 0.0
0.208274245936 0.0210385213593 0.0
-0.0508137167236 0.208953574352 0.0
-0.0854440363653 -0.138561853007 0.0
-0.0821458615324 0.0150511574893 0.0
-0.0974790525671 0.211183111752 0.0
-0.192399482554 -0.146832429771 0.0
0.0028794170146 0.185810184242 0.0
-0.0765502662841 0.0985352048046 0.0
-0.218594365509 -0.29606610397 0.0
-0.112359858193 -0.0281922148213 0.0
0.802093797133 0.00752115939705 0.0
-0.00197960835905 0.0567118630382 0.0
-0.00726885499484 -0.0502612148927 0.0
-0.0215237382613 0.000514538914798 0.0
-0.0690246978122 -0.0794774375634 0.0
-0.0726414329741 0.0331938459034 0.0
-0.165585739112 0.12203267142 0.0
0.0905119013573 -0.0947720634689 0.0
-0.0555978290207 0.246508163446 0.0
-0.224529771623 -0.0272496886799 0.0
-0.227174421607 0.00563596762919 0.0
-0.239955725708 -0.0506341764872 0.0
-0.133415050343 0.0400917013291 0.0
-0.119781752353 0.128436578861 0.0
-0.23524217576 -0.102466100666 0.0
-0.203439528125 -0.0196387031027 0.0
-0.0789410883127 -0.295537795815 0.0
-0.0394387556326 0.230958438007 0.0
-0.0575579570805 -0.0423830524061 0.0
-0.0559941973888 0.0511565839714 0.0
-0.144125984269 -0.417754245624 0.0
0.0146045555662 0.18645722043 0.0
-0.0499175980847 -0.0272181393222 0.0
-0.0393151571101 0.0557511660705 0.0
-0.143964531662 0.0155386242984 0.0
0.237645595352 -0.0993123096497 0.0
-0.0455226459705 0.244452525591 0.0
-0.0311405593542 -0.0466172399541 0.0
-0.0458976117273 0.0194409315681 0.0
0.44178416003 -0.0397153097328 0.0
-0.0258367748153 0.20169813688 0.0
-0.0182650376296 -0.0409593068532 0.0
-0.0375337087555 0.00913593293296 0.0
0.0294819644128 0.132061991669 0.0
-0.0886681229893 0.153947353695 0.0
-0.0988607573558 0.0528728671574 0.0
-0.214324524493 -0.162404005326 0.0
-0.156626631934 -0.0524255378166 0.0
-0.105668272756 0.124834358881 0.0
-0.142812309018 0.142316258602 0.0
0.791472280275 -0.00819963430802 0.0
-0.0038381054656 0.091427167735 0.0
-0.00237411235738 -0.0139998870295 0.0
-0.0158722259983 0.00120073851596 0.0
-0.0677814492225 0.235772461191 0.0
-0.144935857216 0.161214596941 0.0
-0.0175912844917 -0.170431137712 0.0
-0.0128776588713 -0.000977091290408 0.0
0.70914003257 0.0154443270601 0.0
-0.00192953217622 0.0216934845327 0.0
0.545155489774 -0.00814586652928 0.0
-0.0169033864104 0.15884102541 0.0
-0.018734517128 -0.0541216397788 0.0
-0.0390755618017 0.00534788878014 0.0
-0.058420954882 0.160602878222 0.0
-0.0296004854108 0.16991353786 0.0
-0.0417926407016 0.223840041286 0.0
-0.0787370192514 0.0691768859238 0.0
-0.227012447362 -0.00356599336367 0.0
0.271085014364 -0.187379249128 0.0
-0.0707913919747 0.259804488221 0.0
-0.00405319265194 -0.00556484437161 0.0
-0.0099504829379 0.00607490352071 0.0
0.526634059488 0.0235345200528 0.0
-0.0168047686176 0.118330783385 0.0
-0.0365018394959 -0.120093241852 0.0
-0.0466011750405 0.00102713831108 0.0
0.141639084977 0.0853602414731 0.0