# vtk DataFile Version 2.0
2D Simulation Python
ASCII
DATASET UNSTRUCTURED_GRID
FIELD FieldData 1
NODES 1 2 int
3798 7382

POINTS 3798 double
0.0 0.0 0.0
1.0 0.0 0.0
1.0 1.0 0.0
0.0 1.0 0.0
0.01886792452826637 0.0 0.0
0.03773584905653053 0.0 0.0
0.05660377358479097 0.0 0.0
0.07547169811305962 0.0 0.0
0.09433962264133271 0.0 0.0
0.1132075471696058 0.0 0.0
0.1320754716978688 0.0 0.0
0.1509433962261159 0.0 0.0
0.1698113207543628 0.0 0.0
0.1886792452826097 0.0 0.0
0.2075471698108566 0.0 0.0
0.2264150943391035 0.0 0.0
0.2452830188673504 0.0 0.0
0.2641509433955972 0.0 0.0
0.2830188679238441 0.0 0.0
0.301886792452091 0.0 0.0
0.3207547169803379 0.0 0.0
0.3396226415085848 0.0 0.0
0.3584905660368317 0.0 0.0
0.3773584905650785 0.0 0.0
0.3962264150933255 0.0 0.0
0.4150943396215723 0.0 0.0
0.4339622641498192 0.0 0.0
0.4528301886780661 0.0 0.0
0.4716981132063129 0.0 0.0
0.4905660377345599 0.0 0.0
0.5094339622628591 0.0 0.0
0.5283018867912108 0.0 0.0
0.5471698113195625 0.0 0.0
0.5660377358479143 0.0 0.0
0.5849056603762659 0.0 0.0
0.6037735849046176 0.0 0.0
0.6226415094329693 0.0 0.0
0.6415094339613208 0.0 0.0
0.6603773584896723 0.0 0.0
0.6792452830180238 0.0 0.0
0.6981132075463754 0.0 0.0
0.7169811320747269 0.0 0.0
0.7358490566030784 0.0 0.0
0.7547169811314299 0.0 0.0
0.7735849056597816 0.0 0.0
0.7924528301881331 0.0 0.0
0.8113207547164847 0.0 0.0
0.8301886792448361 0.0 0.0
0.8490566037731877 0.0 0.0
0.8679245283015392 0.0 0.0
0.8867924528298908 0.0 0.0
0.9056603773582425 0.0 0.0
0.9245283018865939 0.0 0.0
0.9433962264149454 0.0 0.0
0.962264150943297 0.0 0.0
0.9811320754716486 0.0 0.0
1.0 0.01886792452826637 0.0
1.0 0.03773584905653053 0.0
1.0 0.05660377358479097 0.0
1.0 0.07547169811305962 0.0
1.0 0.09433962264133271 0.0
1.0 0.1132075471696058 0.0
1.0 0.1320754716978688 0.0
1.0 0.1509433962261159 0.0
1.0 0.1698113207543628 0.0
1.0 0.1886792452826097 0.0
1.0 0.2075471698108566 0.0
1.0 0.2264150943391035 0.0
1.0 0.2452830188673504 0.0
1.0 0.2641509433955972 0.0
1.0 0.2830188679238441 0.0
1.0 0.301886792452091 0.0
1.0 0.3207547169803379 0.0
1.0 0.3396226415085848 0.0
1.0 0.3584905660368317 0.0
1.0 0.3773584905650785 0.0
1.0 0.3962264150933255 0.0
1.0 0.4150943396215723 0.0
1.0 0.4339622641498192 0.0
1.0 0.4528301886780661 0.0
1.0 0.4716981132063129 0.0
1.0 0.4905660377345599 0.0
1.0 0.5094339622628591 0.0
1.0 0.5283018867912108 0.0
1.0 0.5471698113195625 0.0
1.0 0.5660377358479143 0.0
1.0 0.5849056603762659 0.0
1.0 0.6037735849046176 0.0
1.0 0.6226415094329693 0.0
1.0 0.6415094339613208 0.0
1.0 0.6603773584896723 0.0
1.0 0.6792452830180238 0.0
1.0 0.6981132075463754 0.0
1.0 0.7169811320747269 0.0
1.0 0.7358490566030784 0.0
1.0 0.7547169811314299 0.0
1.0 0.7735849056597816 0.0
1.0 0.7924528301881331 0.0
1.0 0.8113207547164847 0.0
1.0 0.8301886792448361 0.0
1.0 0.8490566037731877 0.0
1.0 0.8679245283015392 0.0
1.0 0.8867924528298908 0.0
1.0 0.9056603773582425 0.0
1.0 0.9245283018865939 0.0
1.0 0.9433962264149454 0.0
1.0 0.962264150943297 0.0
1.0 0.9811320754716486 0.0
0.9811320754716195 1.0 0.0
0.9622641509432391 1.0 0.0
0.9433962264148587 1.0 0.0
0.9245283018864782 1.0 0.0
0.9056603773580978 1.0 0.0
0.8867924528297173 1.0 0.0
0.8679245283014174 1.0 0.0
0.8490566037732444 1.0 0.0
0.8301886792450734 1.0 0.0
0.8113207547169025 1.0 0.0
0.7924528301887315 1.0 0.0
0.7735849056605606 1.0 0.0
0.7547169811323896 1.0 0.0
0.7358490566042186 1.0 0.0
0.7169811320760476 1.0 0.0
0.6981132075478766 1.0 0.0
0.6792452830197057 1.0 0.0
0.6603773584915346 1.0 0.0
0.6415094339633636 1.0 0.0
0.6226415094351925 1.0 0.0
0.6037735849070215 1.0 0.0
0.5849056603788504 1.0 0.0
0.5660377358506794 1.0 0.0
0.5471698113225083 1.0 0.0
0.5283018867943372 1.0 0.0
0.5094339622661662 1.0 0.0
0.4905660377378905 1.0 0.0
0.4716981132095099 1.0 0.0
0.4528301886811295 1.0 0.0
0.4339622641527489 1.0 0.0
0.4150943396243684 1.0 0.0
0.3962264150959879 1.0 0.0
0.3773584905676074 1.0 0.0
0.358490566039227 1.0 0.0
0.3396226415108468 1.0 0.0
0.3207547169824663 1.0 0.0
0.3018867924540859 1.0 0.0
0.2830188679257056 1.0 0.0
0.2641509433973251 1.0 0.0
0.2452830188689448 1.0 0.0
0.2264150943405645 1.0 0.0
0.2075471698121841 1.0 0.0
0.1886792452838036 1.0 0.0
0.1698113207554234 1.0 0.0
0.150943396227043 1.0 0.0
0.1320754716986625 1.0 0.0
0.1132075471702823 1.0 0.0
0.09433962264190188 1.0 0.0
0.0754716981135215 1.0 0.0
0.05660377358514113 1.0 0.0
0.03773584905676075 1.0 0.0
0.01886792452838049 1.0 0.0
0.0 0.9811320754716195 0.0
0.0 0.9622641509432391 0.0
0.0 0.9433962264148587 0.0
0.0 0.9245283018864782 0.0
0.0 0.9056603773580978 0.0
0.0 0.8867924528297173 0.0
0.0 0.8679245283014174 0.0
0.0 0.8490566037732444 0.0
0.0 0.8301886792450734 0.0
0.0 0.8113207547169025 0.0
0.0 0.7924528301887315 0.0
0.0 0.7735849056605606 0.0
0.0 0.7547169811323896 0.0
0.0 0.7358490566042186 0.0
0.0 0.7169811320760476 0.0
0.0 0.6981132075478766 0.0
0.0 0.6792452830197057 0.0
0.0 0.6603773584915346 0.0
0.0 0.6415094339633636 0.0
0.0 0.6226415094351925 0.0
0.0 0.6037735849070215 0.0
0.0 0.5849056603788504 0.0
0.0 0.5660377358506794 0.0
0.0 0.5471698113225083 0.0
0.0 0.5283018867943372 0.0
0.0 0.5094339622661662 0.0
0.0 0.4905660377378905 0.0
0.0 0.4716981132095099 0.0
0.0 0.4528301886811295 0.0
0.0 0.4339622641527489 0.0
0.0 0.4150943396243684 0.0
0.0 0.3962264150959879 0.0
0.0 0.3773584905676074 0.0
0.0 0.358490566039227 0.0
0.0 0.3396226415108468 0.0
0.0 0.3207547169824663 0.0
0.0 0.3018867924540859 0.0
0.0 0.2830188679257056 0.0
0.0 0.2641509433973251 0.0
0.0 0.2452830188689448 0.0
0.0 0.2264150943405645 0.0
0.0 0.2075471698121841 0.0
0.0 0.1886792452838036 0.0
0.0 0.1698113207554234 0.0
0.0 0.150943396227043 0.0
0.0 0.1320754716986625 0.0
0.0 0.1132075471702823 0.0
0.0 0.09433962264190188 0.0
0.0 0.0754716981135215 0.0
0.0 0.05660377358514113 0.0
0.0 0.03773584905676075 0.0
0.0 0.01886792452838049 0.0
0.49961422419268997 0.4984293794066726 0.0
0.7093511500970902 0.706792936500378 0.0
0.29287482782244045 0.7110496278611782 0.0
0.7065208514432915 0.2921137893028175 0.0
0.2917146567058879 0.2951459957249887 0.0
0.5010883512796402 0.783530677658598 0.0
0.2164159732426224 0.5012876322837192 0.0
0.7820505253934122 0.4994927647991782 0.0
0.4969563419356505 0.21663804071479492 0.0
0.8269192007901067 0.8287013252031155 0.0
0.1712682973217082 0.8268730922835856 0.0
0.8299941553097447 0.17180608262880254 0.0
0.17180615988223974 0.17000622072452293 0.0
0.5640959313975822 0.6420224840910225 0.0
0.36076803388570655 0.5671667288006801 0.0
0.641160245161879 0.4320186669377829 0.0
0.4354935082651592 0.36378759861759746 0.0
0.6410454186381067 0.8479832937118897 0.0
0.1518368310809157 0.6410829539811169 0.0
0.8477907051244511 0.3598243790179788 0.0
0.35938579904680457 0.15130729784326102 0.0
0.8497305928919907 0.6399401683101269 0.0
0.3617952267412937 0.8474454291453152 0.0
0.6436051449793575 0.15189469658234833 0.0
0.15079737625026685 0.3588783576988489 0.0
0.6832039587940572 0.5823618751624478 0.0
0.4454396775914624 0.6627381531764 0.0
0.33424594078221964 0.4385872006022409 0.0
0.5773189844856303 0.3195812160927133 0.0
0.5368082180804761 0.8869865896668006 0.0
0.11301341973883329 0.5368082072162796 0.0
0.8863497125425446 0.46278650800142523 0.0
0.46231798559604276 0.1137357048419064 0.0
0.735504344602733 0.8878298811845817 0.0
0.11217246241749894 0.7355045289688809 0.0
0.8876386118329569 0.26464529586215935 0.0
0.26447675721717134 0.11218714573944835 0.0
0.8918893682153743 0.7430319146751548 0.0
0.7378676821853629 0.10938784471235846 0.0
0.2618554236513495 0.8907466135047526 0.0
0.10927139946373736 0.2618885660485004 0.0
0.6036356850091371 0.740958324467786 0.0
0.2594197395873493 0.6024781400358834 0.0
0.7471835282093033 0.3970113006814754 0.0
0.39635295506120277 0.25856270415268773 0.0
0.5973835830959042 0.5282120591728078 0.0
0.5269880475515504 0.40324375384926064 0.0
0.900344051349824 0.09737126935472232 0.0
0.09737116846728401 0.09965601878423913 0.0
0.9027736024298996 0.9004379740924425 0.0
0.09965486244215357 0.9026299600545967 0.0
0.3830054844266893 0.7484876862569074 0.0
0.25074672726321157 0.3828059459383084 0.0
0.9036934196956306 0.5634343341860331 0.0
0.436167023944368 0.903809418557912 0.0
0.5634650142808684 0.09627038765249357 0.0
0.09611428176536896 0.43622888244072316 0.0
0.7383691909253696 0.7977530090605311 0.0
0.20213608094646243 0.7381864461382426 0.0
0.7965379729869333 0.25833485688790847 0.0
0.25825176979143294 0.20343822649683996 0.0
0.8016496201203362 0.7232057683389532 0.0
0.27776554876540255 0.7985644202275013 0.0
0.7230025466734626 0.19888476423555862 0.0
0.20134253349952064 0.2778412830843111 0.0
0.48914355287031674 0.5909586444150075 0.0
0.4113298235007088 0.49483643887222295 0.0
0.7553604068177817 0.6323161440656005 0.0
0.6323326401346647 0.2446343261447706 0.0
0.3558016573651024 0.6535168196958461 0.0
0.6947272998992697 0.49553252027219197 0.0
0.34695271761644664 0.35520182412877976 0.0
0.49374473330545476 0.3082796821038452 0.0
0.8187154539118972 0.9148861354006228 0.0
0.08511383208187207 0.8187154148724425 0.0
0.9150328940734902 0.18133025458140606 0.0
0.18128457425270267 0.0851129709589244 0.0
0.8187403987114168 0.08420346742597412 0.0
0.9157746719419576 0.8186373542270347 0.0
0.08420340483892619 0.18125955209024192 0.0
0.18126035834340148 0.9157847355643594 0.0
0.6491759294498078 0.6582605894876106 0.0
0.518075563238964 0.700155561243168 0.0
0.2994944160935228 0.5182519107636043 0.0
0.6529572976260253 0.35254842454839763 0.0
0.6097401473872117 0.9217208439447089 0.0
0.07827850601264716 0.6097398708442259 0.0
0.9217267277120186 0.3902548071573767 0.0
0.39024121399465406 0.07825838690395835 0.0
0.9257398577009572 0.6657069734842804 0.0
0.6657516430505073 0.07518432263878908 0.0
0.3341866530930919 0.9246109018771522 0.0
0.07542270790545244 0.3342243925275289 0.0
0.8225798016625723 0.5644120390192462 0.0
0.43501894509773303 0.8272239480204406 0.0
0.5644015723185061 0.17743228884395235 0.0
0.1728552698143025 0.4351788286843611 0.0
0.5668992511560398 0.812632221934239 0.0
[...]
POINT_DATA 3798
VECTORS vector double
0.0 0.0 0.0
0.0 0.0 0.0
0.0 0.0 0.0
0.0 0.0 0.0
0.0 0.0 0.0
0.0 0.0 0.0
0.0 0.0 0.0
0.0 0.0 0.0
0.0 0.0 0.0
0.0 0.0 0.0
0.0 0.0 0.0
0.0 0.0 0.0
0.0 0.0 0.0
0.0 0.0 0.0
0.0 0.0 0.0
0.0 0.0 0.0
0.0 0.0 0.0
0.0 0.0 0.0
0.0 0.0 0.0
0.0 0.0 0.0
0.0 0.0 0.0
0.0 0.0 0.0
0.0 0.0 0.0
0.0 0.0 0.0
0.0 0.0 0.0
0.0 0.0 0.0
0.0 0.0 0.0
0.0 0.0 0.0
0.0 0.0 0.0
0.0 0.0 0.0
0.0 0.0 0.0
0.0 0.0 0.0
0.0 0.0 0.0
0.0 0.0 0.0
0.0 0.0 0.0
0.0 0.0 0.0
0.0 0.0 0.0
0.0 0.0 0.0
0.0 0.0 0.0
0.0 0.0 0.0
0.0 0.0 0.0
0.0 0.0 0.0
0.0 0.0 0.0
0.0 0.0 0.0
0.0 0.0 0.0
0.0 0.0 0.0
0.0 0.0 0.0
0.0 0.0 0.0
0.0 0.0 0.0
0.0 0.0 0.0
0.0 0.0 0.0
0.0 0.0 0.0
0.0 0.0 0.0
0.0 0.0 0.0
0.0 0.0 0.0
0.0 0.0 0.0
0.0 0.0 0.0
0.0 0.0 0.0
0.0 0.0 0.0
0.0 0.0 0.0
0.0 0.0 0.0
0.0 0.0 0.0
0.0 0.0 0.0
0.0 0.0 0.0
0.0 0.0 0.0
0.0 0.0 0.0
0.0 0.0 0.0
0.0 0.0 0.0
0.0 0.0 0.0
0.0 0.0 0.0
0.0 0.0 0.0
0.0 0.0 0.0
0.0 0.0 0.0
0.0 0.0 0.0
0.0 0.0 0.0
0.0 0.0 0.0
0.0 0.0 0.0
0.0 0.0 0.0
0.0 0.0 0.0
0.0 0.0 0.0
0.0 0.0 0.0
0.0 0.0 0.0
0.0 0.0 0.0
0.0 0.0 0.0
0.0 0.0 0.0
0.0 0.0 0.0
0.0 0.0 0.0
0.0 0.0 0.0
0.0 0.0 0.0
0.0 0.0 0.0
0.0 0.0 0.0
0.0 0.0 0.0
0.0 0.0 0.0
0.0 0.0 0.0
0.0 0.0 0.0
0.0 0.0 0.0
0.0 0.0 0.0
0.0 0.0 0.0
0.0 0.0 0.0
0.0 0.0 0.0
0.0 0.0 0.0
0.0 0.0 0.0
0.0 0.0 0.0
0.0 0.0 0.0
0.0 0.0 0.0
0.0 0.0 0.0
0.0 0.0 0.0
0.0 0.0 0.0
1.0 0.0 0.0
1.0 0.0 0.0
1.0 0.0 0.0
1.0 0.0 0.0
1.0 0.0 0.0
1.0 0.0 0.0
1.0 0.0 0.0
1.0 0.0 0.0
1.0 0.0 0.0
1.0 0.0 0.0
1.0 0.0 0.0
1.0 0.0 0.0
1.0 0.0 0.0
1.0 0.0 0.0
1.0 0.0 0.0
1.0 0.0 0.0
1.0 0.0 0.0
1.0 0.0 0.0
1.0 0.0 0.0
1.0 0.0 0.0
1.0 0.0 0.0
1.0 0.0 0.0
1.0 0.0 0.0
1.0 0.0 0.0
1.0 0.0 0.0
1.0 0.0 0.0
1.0 0.0 0.0
1.0 0.0 0.0
1.0 0.0 0.0
1.0 0.0 0.0
1.0 0.0 0.0
1.0 0.0 0.0
1.0 0.0 0.0
1.0 0.0 0.0
1.0 0.0 0.0
1.0 0.0 0.0
1.0 0.0 0.0
1.0 0.0 0.0
1.0 0.0 0.0
1.0 0.0 0.0
1.0 0.0 0.0
1.0 0.0 0.0
1.0 0.0 0.0
1.0 0.0 0.0
1.0 0.0 0.0
1.0 0.0 0.0
1.0 0.0 0.0
1.0 0.0 0.0
1.0 0.0 0.0
1.0 0.0 0.0
1.0 0.0 0.0
1.0 0.0 0.0
0.0 0.0 0.0
0.0 0.0 0.0
0.0 0.0 0.0
0.0 0.0 0.0
0.0 0.0 0.0
0.0 0.0 0.0
0.0 0.0 0.0
0.0 0.0 0.0
0.0 0.0 0.0
0.0 0.0 0.0
0.0 0.0 0.0
0.0 0.0 0.0
0.0 0.0 0.0
0.0 0.0 0.0
0.0 0.0 0.0
0.0 0.0 0.0
0.0 0.0 0.0
0.0 0.0 0.0
0.0 0.0 0.0
0.0 0.0 0.0
0.0 0.0 0.0
0.0 0.0 0.0
0.0 0.0 0.0
0.0 0.0 0.0
0.0 0.0 0.0
0.0 0.0 0.0
0.0 0.0 0.0
0.0 0.0 0.0
0.0 0.0 0.0
0.0 0.0 0.0
0.0 0.0 0.0
0.0 0.0 0.0
0.0 0.0 0.0
0.0 0.0 0.0
0.0 0.0 0.0
0.0 0.0 0.0
0.0 0.0 0.0
0.0 0.0 0.0
0.0 0.0 0.0
0.0 0.0 0.0
0.0 0.0 0.0
0.0 0.0 0.0
0.0 0.0 0.0
0.0 0.0 0.0
0.0 0.0 0.0
0.0 0.0 0.0
0.0 0.0 0.0
0.0 0.0 0.0
0.0 0.0 0.0
0.0 0.0 0.0
0.0 0.0 0.0
0.0 0.0 0.0
-0.199914073203 0.0500431589785 0.0
-0.132980035428 -0.153921349077 0.0
-0.0763764823204 0.211628036585 0.0
-0.0958664606597 -0.062723306495 0.0
-0.0772753374545 0.0558565068861 0.0
0.0381374806764 0.105620112992 0.0
-0.071924390367 0.146978804167 0.0
-0.173404854979 -0.206879495883 0.0
-0.0988422344171 0.00111443681752 0.0
0.0252275234337 -0.306112948314 0.0
-0.070050827843 0.237169581281 0.0
-0.0195631919577 -0.0193956191111 0.0
-0.023391001421 0.0199686274415 0.0
-0.165387527139 0.041038075771 0.0
-0.135243762148 0.157693904931 0.0
-0.192875739889 -0.0811190117904 0.0
-0.145594358932 0.043130183507 0.0
0.248426321631 -0.00515940430013 0.0
-0.0466282733916 0.195302539592 0.0
-0.0529614854542 -0.0877657524794 0.0
-0.0592978874567 0.0137222323018 0.0
-0.161759719019 -0.365118819777 0.0
0.0942639391105 0.125010104825 0.0
-0.0573142869701 -0.0153880188079 0.0
-0.0356174886729 0.0749766895615 0.0
-0.237309157117 -0.139179851497 0.0
-0.113005263309 0.145655184696 0.0
-0.125461314332 0.107184129509 0.0
-0.142424518506 -0.0267838814454 0.0
0.359625932917 0.0365868213008 0.0
-0.0271134378865 0.131056263597 0.0
-0.0543601604069 -0.137602316673 0.0
-0.0547629548257 0.00248776997109 0.0
0.35889422114 -0.0691237494314 0.0
-0.0399002024841 0.213106961582 0.0
-0.0160140119086 -0.0320201648328 0.0
-0.0312107561913 0.00987775480569 0.0
-0.117169516816 -0.471732386416 0.0
-0.0269204887664 -0.0102328073368 0.0
0.108779218256 0.123824895685 0.0
-0.0162447037165 0.034339423 0.0
-0.0326099786674 0.0204396012453 0.0
-0.089890560403 0.192799366606 0.0
-0.127182208378 -0.122944226562 0.0
-0.100064207069 0.0290239591725 0.0
-0.229958835938 -0.0339965710484 0.0
-0.184576659873 0.00450644164355 0.0
-0.00287600597923 -0.00273923208328 0.0
-0.00492168586519 0.0041444772345 0.0
0.0624544617392 -0.366270864151 0.0
-0.0785704046827 0.252717806357 0.0
-0.0409386391877 0.17438315645 0.0
-0.0794118933678 0.092980068888 0.0
-0.070611511046 -0.218717291547 0.0
0.36684472869 0.0508096444195 0.0
-0.0464854208229 -0.00347722340862 0.0
-0.0197086011066 0.0833943446579 0.0
0.0510897368754 -0.151509228314 0.0
-0.0659999276337 0.23321307446 0.0
-0.0474471230276 -0.049344071932 0.0
-0.0497754170897 0.0299720671091 0.0
-0.148091881183 -0.340204647409 0.0
-0.0375365371321 0.198646954015 0.0
-0.0548111082668 -0.0318644603245 0.0
-0.045873212557 0.0517954198442 0.0
-0.174680494869 0.0945000379245 0.0
-0.164265321432 0.105865895724 0.0
-0.21686669457 -0.257283889065 0.0
-0.0987764397796 -0.0325849851242 0.0
-0.105749983318 0.18626390351 0.0
-0.219660748362 -0.142254866389 0.0
-0.114162205824 0.0692196773973 0.0
-0.135843846301 0.00818524418817 0.0
0.367212355326 -0.118460867856 0.0
-0.0542107792684 0.234513884817 0.0
-0.00524178739056 -0.00975977674989 0.0
-0.0127817196304 0.00549967779266 0.0
-0.00953500483554 -0.00541661770524 0.0
-0.083280724056 -0.512709867558 0.0
-0.00772508311573 0.013490840339 0.0
0.0938833247142 0.145797174133 0.0
-0.179184830971 -0.0679011068743 0.0
-0.0875677561105 0.0992859573691 0.0
-0.111971988527 0.152114434845 0.0
-0.151711724358 -0.0670178297675 0.0
0.551900248458 0.00293128570303 0.0
-0.0164496586448 0.128289196016 0.0
-0.0184182630166 -0.0594146710152 0.0
-0.0354652594478 0.00337279328416 0.0
-0.0679438393981 -0.310420503003 0.0
-0.0274045659171 -0.00486935735993 0.0
0.372736545109 0.0556271812097 0.0
-0.0104922881334 0.0424537951458 0.0
-0.162952262019 -0.282619699012 0.0
0.0986191145971 0.114571887579 0.0
-0.0734848358144 -0.00904516179598 0.0
-0.0487572585195 0.111259728267 0.0
0.126793883259 0.0532117893116 0.0
-0.060429825191 0.174298521654 0.0
-0.0999107294603 -0.147308065744 0.0
-0.0807488454985 0.0106049916332 0.0
-0.175890824383 0.0568522379444 0.0
-0.0839324452726 -0.0886186764284 0.0
-0.0721578552521 0.029630198483 0.0
0.0448408456116 -0.0499611991899 0.0
-0.0744376049454 0.216522724319 0.0
-0.216765703657 -0.0237726767333 0.0
0.575478130992 -0.0154256690411 0.0
-0.0161388925205 0.146177261654 0.0
-0.0100790692595 -0.03236928937 0.0
-0.0268987173452 0.00415243217653 0.0
-0.223250548746 -0.227711191945 0.0
-0.10990534679 -0.0160184309869 0.0
-0.149467794251 0.139896261447 0.0
-0.0550965873286 0.14663090281 0.0
-0.091271404094 0.122391873935 0.0
-0.219268451395 -0.0374711227743 0.0
-0.185422567489 -0.0380685801344 0.0
-0.144041182862 0.0757471069266 0.0
-0.210395073486 0.0239352847744 0.0
-0.178942697942 0.102033930827 0.0
0.562966875532 0.0178559766013 0.0
-0.0107014108091 0.0800267327493 0.0
-0.025509043853 -0.115331214723 0.0
-0.0343633316997 -0.000322566485412 0.0
0.170322018354 0.0818062250686 0.0
-0.0434330904671 0.13170727222 0.0
-0.118406284647 -0.212877440062 0.0
-0.0740809643059 -0.000185699223348 0.0
0.223564345651 -0.0620220684156 0.0
-0.0520844410651 0.219234592975 0.0
-0.0391054161137 -0.0584741675804 0.0
-0.0502407514629 0.0178305949383 0.0
-0.104571609255 -0.400164478776 0.0
-0.0325212479494 0.198050071303 0.0
-0.0320529228737 -0.0214198143353 0.0
-0.0281917908561 0.0338158902222 0.0
-0.0482598179968 0.194775733603 0.0
-0.0665853343515 0.069069131626 0.0
-0.0975314142818 0.0481471512153 0.0
-0.035861150063 -0.195956023845 0.0
-0.0265891597578 -0.00235319051228 0.0
0.53123447936 0.0261390805816 0.0
-0.00792933337637 0.0477730810861 0.0
-0.0920574345393 0.203322424217 0.0
-0.178333432619 -0.158463798304 0.0
-0.124948240485 0.0273635465442 0.0
-5.07565246603e-05 4.58107275446e-05 0.0
-0.000604710042853 0.000414175871935 0.0
0.0718793820225 -0.340099259999 0.0
-0.0639418168245 0.270640100527 0.0
0.636101202102 0.00872419881042 0.0
-0.00873825041365 0.0896157809697 0.0
-0.0145219372634 -0.0672801206161 0.0
-0.0298211014244 0.00100217952425 0.0
0.596373803124 -0.0318882534215 0.0
-0.0166528742511 0.160810380451 0.0
-0.0038682766312 -0.0113625008976 0.0
-0.0132087300868 0.00283997539601 0.0
-0.0589988943461 -0.403399208067 0.0
-0.0105772766234 -0.00301042416804 0.0
0.356237505467 0.0627930594725 0.0
-0.00475130664959 0.0163634886877 0.0
0.154690552298 -0.164750552645 0.0
-0.0644121793408 0.241868769913 0.0
-0.0232387765921 -0.031078117739 0.0
-0.0330795722471 0.0180571239033 0.0
-0.161129055365 -0.417216171924 0.0
0.0597894849833 0.1474677253 0.0
-0.0458330080225 -0.018456934612 0.0
-0.0308097089351 0.054445879886 0.0
-0.0168181564303 0.0788786093496 0.0
-0.091507107288 0.169094255866 0.0
-0.12467696302 -0.0865046085969 0.0
-0.149231590263 0.0933407279281 0.0
-0.138323525241 0.135280932483 0.0
-0.102523077483 -0.0518730714892 0.0
-0.202140341485 -0.160941400739 0.0
-0.119317974345 -0.052480309215 0.0
-0.0970031023128 0.0520314664918 0.0
-0.110445820913 0.173774456058 0.0
-0.16607496817 -0.0982816882495 0.0
-0.238840223084 -0.0977807735853 0.0
-0.163057011062 -0.00647695530682 0.0
0.453646185606 -0.100796254822 0.0
-0.049585917493 0.228618738424 0.0
-0.00141385113633 -0.00215697194377 0.0
-0.00406258408786 0.00165491627221 0.0
-0.00218417775854 -0.00133382293057 0.0
-0.0580722851006 -0.503599166091 0.0
-0.00241356533849 0.00428108032507 0.0
0.164283867872 0.120879391019 0.0
-0.0778968081095 0.193783590103 0.0
-0.103735456346 0.0914072465329 0.0
-0.109152547445 0.0134676286309 0.0
0.320612392164 0.0249516072921 0.0
-0.0352019362587 0.16100095951 0.0
-0.0514290771511 -0.109277349179 0.0
-0.0565053043801 0.00658022041835 0.0
-0.0895901108853 -0.21535820289 0.0
-0.0665233132562 0.220980243492 0.0
-0.0654016032926 -0.0489182228443 0.0
-0.0579716775904 0.044613742836 0.0
-0.178147835312 -0.255451605395 0.0
-0.0826206063576 -0.0422438909338 0.0
0.0970784677375 0.0131708313481 0.0
-0.0677848311232 0.199019004825 0.0
-0.0905113216713 -0.115877936851 0.0
-0.0796136166006 0.0201707381639 0.0
-0.0450267952243 -0.311689890634 0.0
-0.0146445003114 -0.00270030826635 0.0
0.485317068264 0.0343613599734 0.0
-0.00470381432481 0.0232921725279 0.0
0.113796525968 -0.294745895248 0.0
-0.0793579714835 0.254057112248 0.0
-0.00932471633206 -0.010207416034 0.0
-0.0137386874951 0.0107542536132 0.0
0.02561325839 0.151225004082 0.0
-0.0575869490269 0.0939542589053 0.0
-0.225429315208 -0.0774689765073 0.0
-0.155537398842 0.0229158453578 0.0
-0.0823070821482 0.171316013504 0.0
-0.0230036842073 -0.254679564789 0.0
-0.0689075672606 0.231084543885 0.0
-0.0366919587497 -0.03330254933 0.0
-0.0387285580823 0.0312039110592 0.0
-0.0897452927506 0.0753536905517 0.0
-0.103160724976 -0.298272741011 0.0
0.260834673823 0.075340614049 0.0
-0.0476391399238 -0.00717442686109 0.0
-0.0223831964087 0.0744548654719 0.0
-0.197268271783 -0.316787443016 0.0
-0.0759102566603 -0.019067537161 0.0
-0.199004845048 0.0315577493521 0.0
-0.21174769002 0.00960439478469 0.0
-0.121599804834 0.0471317607964 0.0
-0.192657889582 -0.344967636979 0.0
-0.0683636741397 -0.0271326432618 0.0
0.00066589294088 0.169823518272 0.0
-0.0470341281855 0.0683661359393 0.0
-0.156055395896 0.131080759835 0.0
-0.0173487091448 -0.110297210284 0.0
-0.0221355098698 -0.000691201223365 0.0
0.674105719153 0.0138092359755 0.0
-0.00477584926539 0.0468962909015 0.0
-0.113392498565 0.182408101117 0.0
-0.189669077238 -0.123666110937 0.0
-0.0811089654775 -0.451344559366 0.0
-0.0230112121548 0.193216380806 0.0
-0.0186970939061 -0.0126390061054 0.0
-0.0168319816125 0.0221502546464 0.0
0.351038098082 0.0550090169514 0.0
-0.0244014150383 0.108094786775 0.0
-0.067728375664 -0.179012703669 0.0
-0.0523944464063 -0.000413748253163 0.0
-0.182820042591 0.0742775211235 0.0
0.000872607126957 0.143409361057 0.0
-0.0732202121748 0.11611359059 0.0
0.360529290065 -0.029733404597 0.0
-0.0368466921524 0.193176753379 0.0
-0.0265031376152 -0.0543749748726 0.0
-0.0419754614071 0.0102035307295 0.0
-0.200175996269 0.0587773470099 0.0
0.693505658431 -0.0125423379894 0.0
-0.00828343962092 0.118505255516 0.0
-0.00348115748212 -0.0144045104095 0.0
-0.0142999196811 0.00217541646924 0.0
-0.14720777278 0.102031617551 0.0
0.720304608441 -0.00728540722698 0.0
-0.00794457838976 0.0931909995479 0.0
-0.00459614781176 -0.0267747526974 0.0
-0.0188040522267 0.00115447868083 0.0
-0.235243234418 -0.166358153438 0.0
-0.125329295311 -0.011782680588 0.0
-0.122228640172 0.166078664366 0.0
-0.14307061354 0.130247420875 0.0
-0.232781857889 -0.193799966627 0.0
-0.1203552201 -0.0310199688505 0.0
0.196939677563 -0.181199821419 0.0
-0.068403543926 0.248100361173 0.0
-0.0121716799346 -0.0181083209367 0.0
-0.0209719554425 0.011732020212 0.0
-0.0378720317897 -0.11297092855 0.0
-0.0763749965823 0.222108379727 0.0
-0.0786071824499 -0.0694173363082 0.0
-0.0660099584838 0.0403367242834 0.0
-0.0331610147453 -0.444279557473 0.0
-0.00830133915315 -0.0065603247022 0.0
-0.0453427295453 0.210853104352 0.0
-0.00924446836556 0.0108334156091 0.0
-0.149087301964 -0.000391852046012 0.0
-0.208989343592 -0.191451826956 0.0
-0.114898497945 -0.00100154124941 0.0
-0.140091119286 -0.153670751947 0.0
-0.119957178142 0.0870196247327 0.0
-0.18898110775 -0.246628307278 0.0
-0.09351691772 -0.00785277597958 0.0
-0.129644526326 0.167466924397 0.0
-0.181652632569 0.0620267653852 0.0
-0.0414687899772 0.117567295319 0.0
-0.0882889848555 0.13576030002 0.0
-0.0911550791691 0.144829102121 0.0
-0.111517369015 0.128454872407 0.0
-0.218856408949 -0.0901027940724 0.0
-0.170633503964 -0.0691787664658 0.0
-0.153744405799 -0.0475533619596 0.0
0.637663537409 -0.0347127818559 0.0
-0.0178452496174 0.151562318386 0.0
-0.0013474258066 -0.00429448574281 0.0
-0.00519838002356 0.00131625207276 0.0
-0.00379265486706 -0.0010959112675 0.0
-0.0402338022815 -0.389723291579 0.0
-0.00182789794959 0.00768118171653 0.0
0.432911587759 0.0512475745328 0.0
0.0387418377432 0.0475162156205 0.0
-0.0748362627837 0.184076379359 0.0
-0.0206603903556 -0.17397554127 0.0
-0.0156349996773 -0.00150360330558 0.0
0.650389697856 0.0133855079357 0.0
-0.00361916838519 0.0282742108177 0.0
0.221370816102 0.0600786810543 0.0
-0.0450985566301 0.15018561998 0.0
-0.0995618364629 -0.171348409584 0.0
-0.0711620808233 0.0039027722509 0.0
0.782849516477 0.00281951524352 0.0
-0.00403565017846 0.0649716446165 0.0
-0.00519658190527 -0.0299303478745 0.0
-0.016330869063 0.000915222055918 0.0
-0.118622289342 -0.419320681862 0.0
-0.0419654205911 -0.0114056319044 0.0
0.143351970749 0.110098666735 0.0
-0.025380503884 0.0610515150261 0.0
0.22191484866 0.0813055856796 0.0
-0.106867651776 -0.246074307015 0.0
-0.0332198575099 0.105800867555 0.0
-0.0616031964225 -0.00437411898611 0.0
-0.150470838904 -0.318957604907 0.0
0.136225659917 0.111825442662 0.0
-0.0626849227346 -0.0109543638826 0.0
-0.0384177100903 0.0906364191149 0.0
-0.0851155376039 0.209066972126 0.0
-0.0892173006557 0.0351905218657 0.0
-0.102644765005 -0.493958087164 0.0
-0.0164836211045 -0.00733708588839 0.0
0.11887529369 0.125542887579 0.0
-0.0103631863884 0.0222467482184 0.0
-0.138367466372 0.0227033335102 0.0
0.359017633048 -0.104014963684 0.0
-0.0471140063029 0.227234075832 0.0
-0.00883794654348 -0.0169158621109 0.0
-0.0200828705161 0.00758480656621 0.0
-0.163846284295 0.0852321225475 0.0
-0.195295017897 -0.0445009718915 0.0
-0.128628572835 0.0646576077893 0.0
0.394803835351 0.00187371460264 0.0
-0.029534742608 0.16701661975 0.0
-0.0313042207132 -0.0739286091921 0.0
-0.0462803805017 0.00735878409577 0.0
-0.000399305851335 -8.69359400077e-05 0.0
-0.000779656864473 0.000505644067433 0.0
0.368361650759 -0.152906206592 0.0
0.000115957405577 -0.000221698599688 0.0
-0.0682187387115 0.267658112404 0.0
-0.0423232229267 -0.475380086852 0.0
-0.000800070920743 0.0010250719731 0.0
0.213428370696 0.114546329732 0.0
-0.0911621970837 0.0165610432061 0.0
-0.0592572727483 -0.0802965191604 0.0
-0.0607166062954 0.0205393200137 0.0
0.0719451671739 0.0762512172147 0.0
-0.0725215608453 0.166795312663 0.0
-0.126281748088 0.0754361346522 0.0
-0.126666993175 0.154842127673 0.0
-0.138734946205 -0.3832887907 0.0
-0.0317591240679 -0.00891332984789 0.0
0.207343083866 0.089990022255 0.0
-0.0162618418191 0.0447926784469 0.0
0.141500039325 -0.0408346145827 0.0
-0.0599902649534 0.215929678259 0.0
-0.126000459476 -0.0687355625344 0.0
-0.10206364712 0.0627133001902 0.0
-0.157580110151 0.0578824938612 0.0
0.465897360196 0.0163024984534 0.0
-0.0210804085565 0.129712582253 0.0
-0.0314513691388 -0.091691768456 0.0
-0.0440226960452 0.00295477437807 0.0
0.0883032224947 0.10993544893 0.0
-0.0612416068174 0.131147069084 0.0
-0.203022741964 -0.0180211455455 0.0
-0.154672412609 -0.101848396549 0.0
-0.0908383696889 0.00805246423665 0.0
-0.130345513158 -0.182892451922 0.0
-0.20126090568 0.00914513312148 0.0
-0.109648998693 0.000462683908697 0.0
-0.174618791378 0.0285692745117 0.0
-0.0197492254089 -0.0207141578354 0.0
-0.112591527983 -0.102668761004 0.0
-0.0868034919328 0.203198195174 0.0
-0.192340278502 -0.0368791267244 0.0
0.190300826881 0.0263596560468 0.0
-0.0531824135309 0.185274373461 0.0
-0.0749878386666 -0.121169070874 0.0
-0.0710325542875 0.0129594394193 0.0
-0.103085919722 0.189216721455 0.0
-0.175207149074 -0.125527618963 0.0
-0.0233651665885 0.175969774455 0.0
-0.0645839989133 0.0830791320304 0.0
-0.219153710524 -0.271771805422 0.0
-0.0972823044397 -0.0223211799557 0.0
0.785043241561 0.00842668731787 0.0
-0.00205543686693 0.0494172332596 0.0
-0.00673074251671 -0.0461595149007 0.0
-0.0157332210272 0.000472601354317 0.0
-0.0604482883649 -0.068678103556 0.0
-0.0623884081338 0.0279554898545 0.0
-0.167195239302 0.115219152494 0.0
0.0783283205272 -0.0876139047537 0.0
-0.065568054316 0.226219615677 0.0
-0.224775866535 -0.0180840877814 0.0
-0.204684864774 0.00798730195547 0.0
-0.224301006946 -0.0405450674655 0.0
-0.112395515506 0.0344691946669 0.0
-0.105009896429 0.110169877275 0.0
-0.234989078504 -0.0870999697754 0.0
-0.179264333825 -0.0142349676849 0.0
-0.092983024149 -0.286028030887 0.0
-0.0572590072826 0.217098583058 0.0
-0.0486140004026 -0.0362170093207 0.0
-0.0471084307188 0.0430691614509 0.0
-0.150377698421 -0.403066122967 0.0
-0.004645561689 0.177238787552 0.0
-0.0441408680204 -0.0230019972207 0.0
-0.0325868049998 0.0470341201548 0.0
-0.126392750736 0.0143327049183 0.0
0.231780452325 -0.0963679273025 0.0
-0.0530702791363 0.229062965627 0.0
-0.0275717508276 -0.0416727460733 0.0
-0.0404117666248 0.0164000161197 0.0
0.438635708048 -0.0378469261557 0.0
-0.0291847805203 0.188033445835 0.0
-0.0164098181651 -0.0373897641764 0.0
-0.033669783767 0.00771218176236 0.0
0.00560480740945 0.130396696893 0.0
-0.080864834452 0.13197258877 0.0
-0.082691298497 0.0445723063257 0.0
-0.220602145489 -0.144882547881 0.0
-0.138993327661 -0.0423884129159 0.0
-0.126766481604 0.122711534891 0.0
-0.130516641056 0.124727568057 0.0
0.770757437864 -0.00607890039758 0.0
-0.00443449484783 0.0857770915722 0.0
-0.00208559886745 -0.0137930815435 0.0
-0.0113947052518 0.00103248020261 0.0
-0.0814962643126 0.215182192878 0.0
-0.14559059096 0.147695760787 0.0
-0.0168668115612 -0.16222658376 0.0
-0.00984475657874 -0.000734429010684 0.0
0.701135039697 0.0152697054073 0.0
-0.00163790619565 0.0186099158623 0.0
0.532018736742 -0.00590871006233 0.0
-0.0188620284808 0.144310882878 0.0
-0.0162052482131 -0.048943658437 0.0
-0.0337268737002 0.00456944257881 0.0
-0.0782468964403 0.154790037293 0.0
-0.0544307828227 0.162959351541 0.0
-0.062113967343 0.208457527855 0.0
-0.0659931754329 0.0581563663991 0.0
-0.22145964798 0.00215435895066 0.0
0.274008183565 -0.189251423322 0.0
-0.0734155475706 0.258209028351 0.0
-0.00430300159532 -0.00593684373759 0.0
-0.00907968368877 0.00504682567876 0.0
0.513616761083 0.0242384161431 0.0
-0.0162081642466 0.102762550812 0.0
-0.0333700002231 -0.107784473169 0.0
-0.0407461017809 0.0011045985842 0.0