# vtk DataFile Version 2.0
2D Simulation Python
ASCII
DATASET UNSTRUCTURED_GRID
FIELD FieldData 1
NODES 1 2 int
3798 7382

POINTS 3798 double
0.0 0.0 0.0
1.0 0.0 0.0
1.0 1.0 0.0
0.0 1.0 0.0
0.01886792452826637 0.0 0.0
0.03773584905653053 0.0 0.0
0.05660377358479097 0.0 0.0
0.07547169811305962 0.0 0.0
0.09433962264133271 0.0 0.0
0.1132075471696058 0.0 0.0
0.1320754716978688 0.0 0.0
0.1509433962261159 0.0 0.0
0.1698113207543628 0.0 0.0
0.1886792452826097 0.0 0.0
0.2075471698108566 0.0 0.0
0.2264150943391035 0.0 0.0
0.2452830188673504 0.0 0.0
0.2641509433955972 0.0 0.0
0.2830188679238441 0.0 0.0
0.301886792452091 0.0 0.0
0.3207547169803379 0.0 0.0
0.3396226415085848 0.0 0.0
0.3584905660368317 0.0 0.0
0.3773584905650785 0.0 0.0
0.3962264150933255 0.0 0.0
0.4150943396215723 0.0 0.0
0.4339622641498192 0.0 0.0
0.4528301886780661 0.0 0.0
0.4716981132063129 0.0 0.0
0.4905660377345599 0.0 0.0
0.5094339622628591 0.0 0.0
0.5283018867912108 0.0 0.0
0.5471698113195625 0.0 0.0
0.5660377358479143 0.0 0.0
0.5849056603762659 0.0 0.0
0.6037735849046176 0.0 0.0
0.6226415094329693 0.0 0.0
0.6415094339613208 0.0 0.0
0.6603773584896723 0.0 0.0
0.6792452830180238 0.0 0.0
0.6981132075463754 0.0 0.0
0.7169811320747269 0.0 0.0
0.7358490566030784 0.0 0.0
0.7547169811314299 0.0 0.0
0.7735849056597816 0.0 0.0
0.7924528301881331 0.0 0.0
0.8113207547164847 0.0 0.0
0.8301886792448361 0.0 0.0
0.8490566037731877 0.0 0.0
0.8679245283015392 0.0 0.0
0.8867924528298908 0.0 0.0
0.9056603773582425 0.0 0.0
0.9245283018865939 0.0 0.0
0.9433962264149454 0.0 0.0
0.962264150943297 0.0 0.0
0.9811320754716486 0.0 0.0
1.0 0.01886792452826637 0.0
1.0 0.03773584905653053 0.0
1.0 0.05660377358479097 0.0
1.0 0.07547169811305962 0.0
1.0 0.09433962264133271 0.0
1.0 0.1132075471696058 0.0
1.0 0.1320754716978688 0.0
1.0 0.1509433962261159 0.0
1.0 0.1698113207543628 0.0
1.0 0.1886792452826097 0.0
1.0 0.2075471698108566 0.0
1.0 0.2264150943391035 0.0
1.0 0.2452830188673504 0.0
1.0 0.2641509433955972 0.0
1.0 0.2830188679238441 0.0
1.0 0.301886792452091 0.0
1.0 0.3207547169803379 0.0
1.0 0.3396226415085848 0.0
1.0 0.3584905660368317 0.0
1.0 0.3773584905650785 0.0
1.0 0.3962264150933255 0.0
1.0 0.4150943396215723 0.0
1.0 0.4339622641498192 0.0
1.0 0.4528301886780661 0.0
1.0 0.4716981132063129 0.0
1.0 0.4905660377345599 0.0
1.0 0.5094339622628591 0.0
1.0 0.5283018867912108 0.0
1.0 0.5471698113195625 0.0
1.0 0.5660377358479143 0.0
1.0 0.5849056603762659 0.0
1.0 0.6037735849046176 0.0
1.0 0.6226415094329693 0.0
1.0 0.6415094339613208 0.0
1.0 0.6603773584896723 0.0
1.0 0.6792452830180238 0.0
1.0 0.6981132075463754 0.0
1.0 0.7169811320747269 0.0
1.0 0.7358490566030784 0.0
1.0 0.7547169811314299 0.0
1.0 0.7735849056597816 0.0
1.0 0.7924528301881331 0.0
1.0 0.8113207547164847 0.0
1.0 0.8301886792448361 0.0
1.0 0.8490566037731877 0.0
1.0 0.8679245283015392 0.0
1.0 0.8867924528298908 0.0
1.0 0.9056603773582425 0.0
1.0 0.9245283018865939 0.0
1.0 0.9433962264149454 0.0
1.0 0.962264150943297 0.0
1.0 0.9811320754716486 0.0
0.9811320754716195 1.0 0.0
0.9622641509432391 1.0 0.0
0.9433962264148587 1.0 0.0
0.9245283018864782 1.0 0.0
0.9056603773580978 1.0 0.0
0.8867924528297173 1.0 0.0
0.8679245283014174 1.0 0.0
0.8490566037732444 1.0 0.0
0.8301886792450734 1.0 0.0
0.8113207547169025 1.0 0.0
0.7924528301887315 1.0 0.0
0.7735849056605606 1.0 0.0
0.7547169811323896 1.0 0.0
0.7358490566042186 1.0 0.0
0.7169811320760476 1.0 0.0
0.6981132075478766 1.0 0.0
0.6792452830197057 1.0 0.0
0.6603773584915346 1.0 0.0
0.6415094339633636 1.0 0.0
0.6226415094351925 1.0 0.0
0.6037735849070215 1.0 0.0
0.5849056603788504 1.0 0.0
0.5660377358506794 1.0 0.0
0.5471698113225083 1.0 0.0
0.5283018867943372 1.0 0.0
0.5094339622661662 1.0 0.0
0.4905660377378905 1.0 0.0
0.4716981132095099 1.0 0.0
0.4528301886811295 1.0 0.0
0.4339622641527489 1.0 0.0
0.4150943396243684 1.0 0.0
0.3962264150959879 1.0 0.0
0.3773584905676074 1.0 0.0
0.358490566039227 1.0 0.0
0.3396226415108468 1.0 0.0
0.3207547169824663 1.0 0.0
0.3018867924540859 1.0 0.0
0.2830188679257056 1.0 0.0
0.2641509433973251 1.0 0.0
0.2452830188689448 1.0 0.0
0.2264150943405645 1.0 0.0
0.2075471698121841 1.0 0.0
0.1886792452838036 1.0 0.0
0.1698113207554234 1.0 0.0
0.150943396227043 1.0 0.0
0.1320754716986625 1.0 0.0
0.1132075471702823 1.0 0.0
0.09433962264190188 1.0 0.0
0.0754716981135215 1.0 0.0
0.05660377358514113 1.0 0.0
0.03773584905676075 1.0 0.0
0.01886792452838049 1.0 0.0
0.0 0.9811320754716195 0.0
0.0 0.9622641509432391 0.0
0.0 0.9433962264148587 0.0
0.0 0.9245283018864782 0.0
0.0 0.9056603773580978 0.0
0.0 0.8867924528297173 0.0
0.0 0.8679245283014174 0.0
0.0 0.8490566037732444 0.0
0.0 0.8301886792450734 0.0
0.0 0.8113207547169025 0.0
0.0 0.7924528301887315 0.0
0.0 0.7735849056605606 0.0
0.0 0.7547169811323896 0.0
0.0 0.7358490566042186 0.0
0.0 0.7169811320760476 0.0
0.0 0.6981132075478766 0.0
0.0 0.6792452830197057 0.0
0.0 0.6603773584915346 0.0
0.0 0.6415094339633636 0.0
0.0 0.6226415094351925 0.0
0.0 0.6037735849070215 0.0
0.0 0.5849056603788504 0.0
0.0 0.5660377358506794 0.0
0.0 0.5471698113225083 0.0
0.0 0.5283018867943372 0.0
0.0 0.5094339622661662 0.0
0.0 0.4905660377378905 0.0
0.0 0.4716981132095099 0.0
0.0 0.4528301886811295 0.0
0.0 0.4339622641527489 0.0
0.0 0.4150943396243684 0.0
0.0 0.3962264150959879 0.0
0.0 0.3773584905676074 0.0
0.0 0.358490566039227 0.0
0.0 0.3396226415108468 0.0
0.0 0.3207547169824663 0.0
0.0 0.3018867924540859 0.0
0.0 0.2830188679257056 0.0
0.0 0.2641509433973251 0.0
0.0 0.2452830188689448 0.0
0.0 0.2264150943405645 0.0
0.0 0.2075471698121841 0.0
0.0 0.1886792452838036 0.0
0.0 0.1698113207554234 0.0
0.0 0.150943396227043 0.0
0.0 0.1320754716986625 0.0
0.0 0.1132075471702823 0.0
0.0 0.09433962264190188 0.0
0.0 0.0754716981135215 0.0
0.0 0.05660377358514113 0.0
0.0 0.03773584905676075 0.0
0.0 0.01886792452838049 0.0
0.49961422419268997 0.4984293794066726 0.0
0.7093511500970902 0.706792936500378 0.0
0.29287482782244045 0.7110496278611782 0.0
0.7065208514432915 0.2921137893028175 0.0
0.2917146567058879 0.2951459957249887 0.0
0.5010883512796402 0.783530677658598 0.0
0.2164159732426224 0.5012876322837192 0.0
0.7820505253934122 0.4994927647991782 0.0
0.4969563419356505 0.21663804071479492 0.0
0.8269192007901067 0.8287013252031155 0.0
0.1712682973217082 0.8268730922835856 0.0
0.8299941553097447 0.17180608262880254 0.0
0.17180615988223974 0.17000622072452293 0.0
0.5640959313975822 0.6420224840910225 0.0
0.36076803388570655 0.5671667288006801 0.0
0.641160245161879 0.4320186669377829 0.0
0.4354935082651592 0.36378759861759746 0.0
0.6410454186381067 0.8479832937118897 0.0
0.1518368310809157 0.6410829539811169 0.0
0.8477907051244511 0.3598243790179788 0.0
0.35938579904680457 0.15130729784326102 0.0
0.8497305928919907 0.6399401683101269 0.0
0.3617952267412937 0.8474454291453152 0.0
0.6436051449793575 0.15189469658234833 0.0
0.15079737625026685 0.3588783576988489 0.0
0.6832039587940572 0.5823618751624478 0.0
0.4454396775914624 0.6627381531764 0.0
0.33424594078221964 0.4385872006022409 0.0
0.5773189844856303 0.3195812160927133 0.0
0.5368082180804761 0.8869865896668006 0.0
0.11301341973883329 0.5368082072162796 0.0
0.8863497125425446 0.46278650800142523 0.0
0.46231798559604276 0.1137357048419064 0.0
0.735504344602733 0.8878298811845817 0.0
0.11217246241749894 0.7355045289688809 0.0
0.8876386118329569 0.26464529586215935 0.0
0.26447675721717134 0.11218714573944835 0.0
0.8918893682153743 0.7430319146751548 0.0
0.7378676821853629 0.10938784471235846 0.0
0.2618554236513495 0.8907466135047526 0.0
0.10927139946373736 0.2618885660485004 0.0
0.6036356850091371 0.740958324467786 0.0
0.2594197395873493 0.6024781400358834 0.0
0.7471835282093033 0.3970113006814754 0.0
0.39635295506120277 0.25856270415268773 0.0
0.5973835830959042 0.5282120591728078 0.0
0.5269880475515504 0.40324375384926064 0.0
0.900344051349824 0.09737126935472232 0.0
0.09737116846728401 0.09965601878423913 0.0
0.9027736024298996 0.9004379740924425 0.0
0.09965486244215357 0.9026299600545967 0.0
0.3830054844266893 0.7484876862569074 0.0
0.25074672726321157 0.3828059459383084 0.0
0.9036934196956306 0.5634343341860331 0.0
0.436167023944368 0.903809418557912 0.0
0.5634650142808684 0.09627038765249357 0.0
0.09611428176536896 0.43622888244072316 0.0
0.7383691909253696 0.7977530090605311 0.0
0.20213608094646243 0.7381864461382426 0.0
0.7965379729869333 0.25833485688790847 0.0
0.25825176979143294 0.20343822649683996 0.0
0.8016496201203362 0.7232057683389532 0.0
0.27776554876540255 0.7985644202275013 0.0
0.7230025466734626 0.19888476423555862 0.0
0.20134253349952064 0.2778412830843111 0.0
0.48914355287031674 0.5909586444150075 0.0
0.4113298235007088 0.49483643887222295 0.0
0.7553604068177817 0.6323161440656005 0.0
0.6323326401346647 0.2446343261447706 0.0
0.3558016573651024 0.6535168196958461 0.0
0.6947272998992697 0.49553252027219197 0.0
0.34695271761644664 0.35520182412877976 0.0
0.49374473330545476 0.3082796821038452 0.0
0.8187154539118972 0.9148861354006228 0.0
0.08511383208187207 0.8187154148724425 0.0
0.9150328940734902 0.18133025458140606 0.0
0.18128457425270267 0.0851129709589244 0.0
0.8187403987114168 0.08420346742597412 0.0
0.9157746719419576 0.8186373542270347 0.0
0.08420340483892619 0.18125955209024192 0.0
0.18126035834340148 0.9157847355643594 0.0
0.6491759294498078 0.6582605894876106 0.0
0.518075563238964 0.700155561243168 0.0
0.2994944160935228 0.5182519107636043 0.0
0.6529572976260253 0.35254842454839763 0.0
0.6097401473872117 0.9217208439447089 0.0
0.07827850601264716 0.6097398708442259 0.0
0.9217267277120186 0.3902548071573767 0.0
0.39024121399465406 0.07825838690395835 0.0
0.9257398577009572 0.6657069734842804 0.0
0.6657516430505073 0.07518432263878908 0.0
0.3341866530930919 0.9246109018771522 0.0
0.07542270790545244 0.3342243925275289 0.0
0.8225798016625723 0.5644120390192462 0.0
0.43501894509773303 0.8272239480204406 0.0
0.5644015723185061 0.17743228884395235 0.0
0.1728552698143025 0.4351788286843611 0.0
0.5668992511560398 0.812632221934239 0.0
[...]
POINT_DATA 3798
VECTORS vector double
0.0 0.0 0.0
0.0 0.0 0.0
0.0 0.0 0.0
0.0 0.0 0.0
0.0 0.0 0.0
0.0 0.0 0.0
0.0 0.0 0.0
0.0 0.0 0.0
0.0 0.0 0.0
0.0 0.0 0.0
0.0 0.0 0.0
0.0 0.0 0.0
0.0 0.0 0.0
0.0 0.0 0.0
0.0 0.0 0.0
0.0 0.0 0.0
0.0 0.0 0.0
0.0 0.0 0.0
0.0 0.0 0.0
0.0 0.0 0.0
0.0 0.0 0.0
0.0 0.0 0.0
0.0 0.0 0.0
0.0 0.0 0.0
0.0 0.0 0.0
0.0 0.0 0.0
0.0 0.0 0.0
0.0 0.0 0.0
0.0 0.0 0.0
0.0 0.0 0.0
0.0 0.0 0.0
0.0 0.0 0.0
0.0 0.0 0.0
0.0 0.0 0.0
0.0 0.0 0.0
0.0 0.0 0.0
0.0 0.0 0.0
0.0 0.0 0.0
0.0 0.0 0.0
0.0 0.0 0.0
0.0 0.0 0.0
0.0 0.0 0.0
0.0 0.0 0.0
0.0 0.0 0.0
0.0 0.0 0.0
0.0 0.0 0.0
0.0 0.0 0.0
0.0 0.0 0.0
0.0 0.0 0.0
0.0 0.0 0.0
0.0 0.0 0.0
0.0 0.0 0.0
0.0 0.0 0.0
0.0 0.0 0.0
0.0 0.0 0.0
0.0 0.0 0.0
0.0 0.0 0.0
0.0 0.0 0.0
0.0 0.0 0.0
0.0 0.0 0.0
0.0 0.0 0.0
0.0 0.0 0.0
0.0 0.0 0.0
0.0 0.0 0.0
0.0 0.0 0.0
0.0 0.0 0.0
0.0 0.0 0.0
0.0 0.0 0.0
0.0 0.0 0.0
0.0 0.0 0.0
0.0 0.0 0.0
0.0 0.0 0.0
0.0 0.0 0.0
0.0 0.0 0.0
0.0 0.0 0.0
0.0 0.0 0.0
0.0 0.0 0.0
0.0 0.0 0.0
0.0 0.0 0.0
0.0 0.0 0.0
0.0 0.0 0.0
0.0 0.0 0.0
0.0 0.0 0.0
0.0 0.0 0.0
0.0 0.0 0.0
0.0 0.0 0.0
0.0 0.0 0.0
0.0 0.0 0.0
0.0 0.0 0.0
0.0 0.0 0.0
0.0 0.0 0.0
0.0 0.0 0.0
0.0 0.0 0.0
0.0 0.0 0.0
0.0 0.0 0.0
0.0 0.0 0.0
0.0 0.0 0.0
0.0 0.0 0.0
0.0 0.0 0.0
0.0 0.0 0.0
0.0 0.0 0.0
0.0 0.0 0.0
0.0 0.0 0.0
0.0 0.0 0.0
0.0 0.0 0.0
0.0 0.0 0.0
0.0 0.0 0.0
0.0 0.0 0.0
1.0 0.0 0.0
1.0 0.0 0.0
1.0 0.0 0.0
1.0 0.0 0.0
1.0 0.0 0.0
1.0 0.0 0.0
1.0 0.0 0.0
1.0 0.0 0.0
1.0 0.0 0.0
1.0 0.0 0.0
1.0 0.0 0.0
1.0 0.0 0.0
1.0 0.0 0.0
1.0 0.0 0.0
1.0 0.0 0.0
1.0 0.0 0.0
1.0 0.0 0.0
1.0 0.0 0.0
1.0 0.0 0.0
1.0 0.0 0.0
1.0 0.0 0.0
1.0 0.0 0.0
1.0 0.0 0.0
1.0 0.0 0.0
1.0 0.0 0.0
1.0 0.0 0.0
1.0 0.0 0.0
1.0 0.0 0.0
1.0 0.0 0.0
1.0 0.0 0.0
1.0 0.0 0.0
1.0 0.0 0.0
1.0 0.0 0.0
1.0 0.0 0.0
1.0 0.0 0.0
1.0 0.0 0.0
1.0 0.0 0.0
1.0 0.0 0.0
1.0 0.0 0.0
1.0 0.0 0.0
1.0 0.0 0.0
1.0 0.0 0.0
1.0 0.0 0.0
1.0 0.0 0.0
1.0 0.0 0.0
1.0 0.0 0.0
1.0 0.0 0.0
1.0 0.0 0.0
1.0 0.0 0.0
1.0 0.0 0.0
1.0 0.0 0.0
1.0 0.0 0.0
0.0 0.0 0.0
0.0 0.0 0.0
0.0 0.0 0.0
0.0 0.0 0.0
0.0 0.0 0.0
0.0 0.0 0.0
0.0 0.0 0.0
0.0 0.0 0.0
0.0 0.0 0.0
0.0 0.0 0.0
0.0 0.0 0.0
0.0 0.0 0.0
0.0 0.0 0.0
0.0 0.0 0.0
0.0 0.0 0.0
0.0 0.0 0.0
0.0 0.0 0.0
0.0 0.0 0.0
0.0 0.0 0.0
0.0 0.0 0.0
0.0 0.0 0.0
0.0 0.0 0.0
0.0 0.0 0.0
0.0 0.0 0.0
0.0 0.0 0.0
0.0 0.0 0.0
0.0 0.0 0.0
0.0 0.0 0.0
0.0 0.0 0.0
0.0 0.0 0.0
0.0 0.0 0.0
0.0 0.0 0.0
0.0 0.0 0.0
0.0 0.0 0.0
0.0 0.0 0.0
0.0 0.0 0.0
0.0 0.0 0.0
0.0 0.0 0.0
0.0 0.0 0.0
0.0 0.0 0.0
0.0 0.0 0.0
0.0 0.0 0.0
0.0 0.0 0.0
0.0 0.0 0.0
0.0 0.0 0.0
0.0 0.0 0.0
0.0 0.0 0.0
0.0 0.0 0.0
0.0 0.0 0.0
0.0 0.0 0.0
0.0 0.0 0.0
0.0 0.0 0.0
-0.168154525362 0.0375506117737 0.0
-0.172320032661 -0.125325515331 0.0
-0.101237540122 0.179258654358 0.0
-0.0717503978185 -0.0468428635326 0.0
-0.0594214991955 0.0430356487811 0.0
-0.0161056991326 0.0973720057336 0.0
-0.0636368904257 0.115968825081 0.0
-0.145997870806 -0.160568551009 0.0
-0.0755946095912 0.00164279780766 0.0
-0.00678085087507 -0.290991680772 0.0
-0.0822273080359 0.227004382004 0.0
-0.0176824908895 -0.0175948674162 0.0
-0.0189476910553 0.0168915470856 0.0
-0.185208700762 0.0415155127615 0.0
-0.129398307548 0.121192019008 0.0
-0.14928723298 -0.0595132972458 0.0
-0.109985421274 0.0315095174062 0.0
0.20262889623 0.00536358742028 0.0
-0.0522376532819 0.168354487722 0.0
-0.0402238334081 -0.070179845815 0.0
-0.0471601305272 0.0110017090722 0.0
-0.159621037974 -0.314164882582 0.0
0.058892131325 0.111388333369 0.0
-0.0472575356203 -0.0114270659843 0.0
-0.0280418145822 0.059786342471 0.0
-0.231382549745 -0.106658215258 0.0
-0.13972979131 0.120178230189 0.0
-0.100703519577 0.0801879112405 0.0
-0.105267367252 -0.0189562538374 0.0
0.318429653352 0.0361828146616 0.0
-0.0256779930728 0.108370088209 0.0
-0.043282288572 -0.109998736438 0.0
-0.0448276586576 0.00224043144718 0.0
0.329670458366 -0.0584468012392 0.0
-0.0469251083403 0.19855930093 0.0
-0.0130420518034 -0.0289973319014 0.0
-0.025860206702 0.00830272129509 0.0
-0.130471998305 -0.439226261135 0.0
-0.0247191299938 -0.00853326905073 0.0
0.0953837964404 0.116779761436 0.0
-0.0126156204809 0.0284657635014 0.0
-0.0847413220889 0.0300758334071 0.0
-0.0929067206948 0.155157823272 0.0
-0.0953545143322 -0.0922366337475 0.0
-0.0758804140602 0.0222020391774 0.0
-0.203192827363 -0.0234076080023 0.0
-0.141535681698 0.00315504953685 0.0
-0.00351829178028 -0.00364113508292 0.0
-0.0043068725561 0.00417892198365 0.0
0.0515022072189 -0.366396929316 0.0
-0.0787031220649 0.252949870906 0.0
-0.0817010492605 0.148604914538 0.0
-0.0624211292669 0.0715706501 0.0
-0.062787220495 -0.18033400472 0.0
0.337276331134 0.0455800467924 0.0
-0.0392707788798 -0.00241267643754 0.0
-0.01632890144 0.0673799204514 0.0
0.0059313523045 -0.130648046437 0.0
-0.0835833567039 0.208970887674 0.0
-0.0372225898459 -0.039970751952 0.0
-0.0391734355006 0.0240705414743 0.0
-0.178448657532 -0.306010226557 0.0
-0.0659722606226 0.178341215449 0.0
-0.044386050273 -0.0248645320166 0.0
-0.0355684662181 0.0413111801502 0.0
-0.170295839225 0.0758157944472 0.0
-0.138701442305 0.0786358944097 0.0
-0.226670108175 -0.213690391075 0.0
-0.0749483829411 -0.0235794663614 0.0
-0.123153185671 0.150031729109 0.0
-0.184165990347 -0.10697684936 0.0
-0.0872896677371 0.051670761878 0.0
-0.101106905762 0.006464130818 0.0
0.350040477147 -0.112462534119 0.0
-0.0579714516224 0.230911595678 0.0
-0.00513487776924 -0.0107316717543 0.0
-0.0113122284444 0.00502149436256 0.0
-0.0102627514732 -0.00529701934306 0.0
-0.0990488734423 -0.499273579239 0.0
-0.00625852318816 0.0119474520934 0.0
0.091636488067 0.143145593321 0.0
-0.202607326306 -0.046497678337 0.0
-0.128857278372 0.0900508333068 0.0
-0.0992271415413 0.116605305728 0.0
-0.112890420215 -0.0487184628127 0.0
0.525149553069 0.00647891299003 0.0
-0.0176391702482 0.111201058968 0.0
-0.014032470426 -0.0499219627693 0.0
-0.0301697059129 0.00278902826185 0.0
-0.0671557961553 -0.273281585127 0.0
-0.0251230589687 -0.00383752564347 0.0
0.358489254412 0.0510867952641 0.0
-0.00822458963713 0.034657246115 0.0
-0.143058656404 -0.230124904479 0.0
0.0515971714422 0.10194130132 0.0
-0.0585169036931 -0.00610148560632 0.0
-0.0403715221267 0.0881108498507 0.0
0.0699356627197 0.055723650745 0.0
-0.0592643188521 0.14225867443 0.0
-0.0777866032475 -0.113938608545 0.0
-0.0629581127449 0.00859394351927 0.0
-0.138734397711 0.0413281487343 0.0
-0.0628182484456 -0.0681164958582 0.0
-0.0559077273484 0.0231966901938 0.0
-0.00726990850027 -0.0320955691624 0.0
-0.0859201686658 0.183535917787 0.0
-0.175958274634 -0.0173309203702 0.0
0.556255032064 -0.0098635362741 0.0
-0.0189249438349 0.132897339365 0.0
-0.00782594833238 -0.0292621891912 0.0
-0.0233282890203 0.00347379539721 0.0
-0.205853668095 -0.180412630894 0.0
-0.0828814278446 -0.0109377774146 0.0
-0.150947233816 0.109235621764 0.0
-0.0982561835881 0.126006072238 0.0
-0.0752035275244 0.0939217968675 0.0
-0.214129348249 -0.023256986732 0.0
-0.140662624753 -0.0275194342597 0.0
-0.112030016206 0.0555552347262 0.0
-0.202592451377 0.022645081493 0.0
-0.163603190443 0.0779027944692 0.0
0.53997264161 0.016755189178 0.0
-0.00949893416128 0.0657176549289 0.0
-0.0212501635267 -0.0942241246601 0.0
-0.0302459099623 -0.000127671384979 0.0
0.119574093234 0.0757697587647 0.0
-0.0384168684339 0.105928416326 0.0
-0.0983152491959 -0.168898098397 0.0
-0.0587947182504 0.000485198597722 0.0
0.180957083575 -0.0470657969056 0.0
-0.0625411977424 0.195706884655 0.0
-0.0300391928467 -0.0482594032112 0.0
-0.040022342051 0.0144201910793 0.0
-0.134859975516 -0.374606191751 0.0
-0.0507797321801 0.185483657525 0.0
-0.0279167675354 -0.0179045297394 0.0
-0.0221572077696 0.0278437628271 0.0
-0.0826675739138 0.16822696175 0.0
-0.0514419481459 0.0537462572082 0.0
-0.0742105526524 0.0363985940005 0.0
-0.0333734552694 -0.166136366965 0.0
-0.0244483112254 -0.00181206995727 0.0
0.515947697872 0.0233963296467 0.0
-0.00633229724187 0.0387729206543 0.0
-0.105833874614 0.165886981612 0.0
-0.142761067403 -0.119793300548 0.0
-0.0935585550547 0.0205803435044 0.0
-0.000492577202753 -0.000505956693266 0.0
-0.000755930285285 0.000806284024955 0.0
0.0711642293145 -0.345246125987 0.0
-0.0628761822773 0.271648645653 0.0
0.614973258162 0.00957610819918 0.0
-0.00859059393116 0.0755128112764 0.0
-0.0113423164267 -0.0556742337907 0.0
-0.0263865234926 0.000872881392984 0.0
0.589336371131 -0.0274994916175 0.0
-0.0190411445336 0.155710615504 0.0
-0.0034864095914 -0.0121876675496 0.0
-0.0122600672817 0.00257095280955 0.0
-0.0639318740057 -0.38077935346 0.0
-0.0115376894031 -0.00274969031893 0.0
0.354158136021 0.0607142835345 0.0
-0.00372496699008 0.0140787670766 0.0
0.118451147457 -0.149608913847 0.0
-0.076565719932 0.22653312836 0.0
-0.019475055666 -0.0273924507588 0.0
-0.0267465730214 0.0150340860183 0.0
-0.173732064641 -0.374496513204 0.0
0.0336247561356 0.134495188721 0.0
-0.0388332572989 -0.0143592600294 0.0
-0.0238978451683 0.0439208258158 0.0
-0.0698886924451 0.0769670803632 0.0
-0.0858359044858 0.133151655737 0.0
-0.0929335501942 -0.064107121647 0.0
-0.168590238898 0.0803658382178 0.0
-0.120470157754 0.10186865216 0.0
-0.147019031182 -0.0323225447422 0.0
-0.220103789575 -0.128713283885 0.0
-0.0887365668105 -0.0381638557157 0.0
-0.138686026228 0.0540775488315 0.0
-0.10703208513 0.135605288231 0.0
-0.126133163848 -0.0721833412926 0.0
-0.213036138126 -0.0725367003464 0.0
-0.121767399673 -0.00442919516581 0.0
0.453231345145 -0.0993134842133 0.0
-0.0503563385986 0.22958967219 0.0
-0.00155847541721 -0.00337510114288 0.0
-0.00419777555201 0.00176909330925 0.0
-0.00339294081881 -0.00170424711104 0.0
-0.0676187996959 -0.502549148509 0.0
-0.00201339824781 0.00427843147115 0.0
0.16586108801 0.120768738066 0.0
-0.107874955492 0.161309860347 0.0
-0.0810801876079 0.0688130854586 0.0
-0.0824168391385 0.0106649178663 0.0
0.275088978631 0.028691317894 0.0
-0.0359536375182 0.135659602566 0.0
-0.0393360626439 -0.0872174219831 0.0
-0.0457787223323 0.00541124942706 0.0
-0.132139329772 -0.187538286293 0.0
-0.090958979766 0.194630419105 0.0
-0.0507746138195 -0.037932379158 0.0
-0.0448610414963 0.0352700479252 0.0
-0.205724360043 -0.218843045427 0.0
-0.0634656791118 -0.0315430779086 0.0
0.0425649279203 0.0235400663382 0.0
-0.0723228723506 0.165544121054 0.0
-0.0680584632153 -0.0890140350936 0.0
-0.0616959796355 0.0158267604753 0.0
-0.0466684585443 -0.283045755773 0.0
-0.0149348473914 -0.00228417284443 0.0
0.479812589587 0.0321324437619 0.0
-0.00366624731033 0.0194292284265 0.0
0.0923159457292 -0.286891764564 0.0
-0.0848923009282 0.249924054832 0.0
-0.00923316279847 -0.0105329383337 0.0
-0.0114875038723 0.00957408365879 0.0
-0.0178614135292 0.132307441982 0.0
-0.0457561242095 0.0736848113127 0.0
-0.186177425653 -0.0566324114047 0.0
-0.116916643165 0.0166707027844 0.0
-0.115787996928 0.142374181682 0.0
-0.0647960000737 -0.233137683351 0.0
-0.0873272790813 0.212353178066 0.0
-0.0303854105912 -0.0276595253491 0.0
-0.0305372411215 0.0254376442606 0.0
-0.0691242470922 0.0574034164367 0.0
-0.0969279139436 -0.251897686474 0.0
0.231685197769 0.0674492180337 0.0
-0.0403856460868 -0.00525077254616 0.0
-0.0179446967609 0.0598721723406 0.0
-0.189419845483 -0.26516299904 0.0
-0.0599839432356 -0.013663267084 0.0
-0.159574212449 0.0228914517507 0.0
-0.178030104131 0.00813045430013 0.0
-0.0916659265238 0.0350295291787 0.0
-0.206306682899 -0.300084163894 0.0
-0.0544234679003 -0.0202791219765 0.0
-0.0344117495053 0.150620524106 0.0
-0.0366477011996 0.0541261068185 0.0
-0.14138318923 0.0993090031929 0.0
-0.0148487173612 -0.0916039051458 0.0
-0.0204669362054 -0.000499138057661 0.0
0.659543512126 0.0127046520623 0.0
-0.0039751332956 0.0381724361286 0.0
-0.118200260547 0.143896848694 0.0
-0.147949764558 -0.0919877678644 0.0
-0.106751994071 -0.43295040481 0.0
-0.0329924508773 0.186339252499 0.0
-0.017679148234 -0.0114178426156 0.0
-0.013455872151 0.0188421316211 0.0
0.313479837626 0.0517690013798 0.0
-0.0216141679754 0.0880017461162 0.0
-0.0560870041696 -0.144499494116 0.0
-0.0433781259282 3.19175429424e-05 0.0
-0.150206135024 0.0548477077601 0.0
-0.0468102278624 0.12537704426 0.0
-0.0598663491608 0.0901049933311 0.0
0.322838088534 -0.0196694328277 0.0
-0.04244755626 0.172726628952 0.0
-0.0203516033173 -0.0459909442592 0.0
-0.034404774415 0.00835427719536 0.0
-0.182465860588 0.0464764324431 0.0
0.687324881984 -0.00898731993284 0.0
-0.0100120690708 0.11152611461 0.0
-0.00289482114833 -0.0144787036848 0.0
-0.0135477831408 0.00189123058399 0.0
-0.119151818059 0.0753219014687 0.0
0.703688665237 -0.00533640437648 0.0
-0.00854465423165 0.0829829097223 0.0
-0.00347692021546 -0.0240641579898 0.0
-0.0171664676639 0.00100073511448 0.0
-0.209500867389 -0.1278056867 0.0
-0.0931570202469 -0.00793105193154 0.0
-0.136504680189 0.133080185713 0.0
-0.156190195885 0.105803697312 0.0
-0.230163678226 -0.153888239064 0.0
-0.0896520838567 -0.022037317309 0.0
0.16776889014 -0.170735954117 0.0
-0.0761963005852 0.239514494021 0.0
-0.0111291044794 -0.0174342202744 0.0
-0.0175693831602 0.0101490899403 0.0
-0.0871562378104 -0.0897481566759 0.0
-0.0953757762882 0.190710177003 0.0
-0.0591500393246 -0.0532986743441 0.0
-0.0512892632842 0.0314979332138 0.0
-0.0536006782571 -0.437224809647 0.0
-0.00877813938857 -0.00678664853626 0.0
-0.0485247082779 0.208327761149 0.0
-0.00766520124017 0.00978369983485 0.0
-0.18110344266 0.0102133615164 0.0
-0.177827085742 -0.147354811898 0.0
-0.0862638735566 3.58217105305e-05 0.0
-0.108756396986 -0.116727439421 0.0
-0.0938485447254 0.0644947467076 0.0
-0.167517973183 -0.195988639413 0.0
-0.0720314839613 -0.00499329279172 0.0
-0.132819874875 0.131301791588 0.0
-0.183233446477 0.0540986771594 0.0
-0.0892559416013 0.105343709606 0.0
-0.124832751188 0.115965310893 0.0
-0.0788422132279 0.11193939306 0.0
-0.0933444175518 0.0972699422638 0.0
-0.220837770473 -0.0654123066927 0.0
-0.12759316312 -0.050315750102 0.0
-0.113792410916 -0.034240322439 0.0
0.647469557548 -0.0327717667078 0.0
-0.0190655946739 0.15070330911 0.0
-0.00131714947061 -0.00535124525322 0.0
-0.00636193768476 0.00134250591444 0.0
-0.00563154319349 -0.00116581325714 0.0
-0.0456435018023 -0.374965787613 0.0
-0.00144271737969 0.00696534674702 0.0
0.433993958585 0.0505857173023 0.0
-0.0179940985272 0.0525761554503 0.0
-0.0742144567886 0.148953407362 0.0
-0.0198367120818 -0.150048454871 0.0
-0.0155977086563 -0.00123546789967 0.0
0.642317350552 0.0119434738015 0.0
-0.00284824887618 0.0231084411732 0.0
0.17237994471 0.0587213701676 0.0
-0.0423647349402 0.122674077133 0.0
-0.0810852363369 -0.134477461544 0.0
-0.0565133962392 0.00351029458934 0.0
0.771221996807 0.00399288959906 0.0
-0.00429343962282 0.056056733147 0.0
-0.00392229851006 -0.0258343746921 0.0
-0.0155168844167 0.000771248858375 0.0
-0.123778322449 -0.378709182343 0.0
-0.0362692166499 -0.00873081271027 0.0
0.11698715181 0.0997709188794 0.0
-0.0198637527794 0.0491698238418 0.0
0.180843630424 0.0737892390291 0.0
-0.0936592146659 -0.200171070428 0.0
-0.0280417866974 0.0849012626541 0.0
-0.0502425756252 -0.00284059616926 0.0
-0.142400035126 -0.266864628839 0.0
0.0975825859685 0.0994417944716 0.0
-0.0511336539971 -0.00780169918686 0.0
-0.0309149709617 0.0722345517516 0.0
-0.0965186433248 0.172889847265 0.0
-0.0679815100422 0.0270954031397 0.0
-0.115754429405 -0.470023660595 0.0
-0.0162858877207 -0.00654019347353 0.0
0.112203256336 0.121016027641 0.0
-0.00827676223455 0.0189558053103 0.0
-0.103394567899 0.016835336875 0.0
0.338417663438 -0.0956534290374 0.0
-0.0528928499723 0.219381097839 0.0
-0.0078720812492 -0.0168973530248 0.0
-0.0170679428778 0.00664685114676 0.0
-0.131939263088 0.0626019930193 0.0
-0.150594917212 -0.0323253343751 0.0
-0.0983218975319 0.0477032278017 0.0
0.355427095015 0.00851460621712 0.0
-0.0323594382607 0.144912051682 0.0
-0.0237624419693 -0.0607964082171 0.0
-0.0380085795342 0.00599942544776 0.0
-0.000571109305906 -0.000849528461283 0.0
-0.00128437890462 0.000774998942899 0.0
0.374693469165 -0.154510876469 0.0
-0.000918327732071 -0.000547595978791 0.0
-0.0678718729795 0.269162323912 0.0
-0.0474330776992 -0.480179474732 0.0
-0.000705582602962 0.00137061535748 0.0
0.215147462792 0.114963514386 0.0
-0.069960113489 0.0130125306883 0.0
-0.0447842196032 -0.0635179649949 0.0
-0.0480462013313 0.0163373782885 0.0
0.01762092153 0.0746259569402 0.0
-0.0682123250148 0.13350491521 0.0
-0.157750791532 0.0699342942648 0.0
-0.116018885553 0.118298331906 0.0
-0.140138265033 -0.335281753241 0.0
-0.0285874287685 -0.0071056349293 0.0
0.190425858335 0.0827194751788 0.0
-0.0126789494294 0.0365864711061 0.0
0.0895779566072 -0.0257189361548 0.0
-0.0697588131311 0.186822663574 0.0
-0.0937327554091 -0.0504746082324 0.0
-0.0777112297806 0.0473906593341 0.0
-0.121128289272 0.0421100964491 0.0
0.430984303243 0.0181647300463 0.0
-0.0210908513355 0.109599266563 0.0
-0.0243621800132 -0.0746112549004 0.0
-0.0367394388807 0.00251160097383 0.0
0.036163231322 0.0991806150319 0.0
-0.0523211114181 0.103772769884 0.0
-0.158737341825 -0.0132400244745 0.0
-0.189249481326 -0.0764032796444 0.0
-0.070019208771 0.00671119000939 0.0
-0.104775021657 -0.141597137727 0.0
-0.204639462942 0.0133976937846 0.0
-0.149877090416 0.012635147009 0.0
-0.133898063554 0.0204854893281 0.0
-0.0726147248432 -0.00534067735077 0.0
-0.0842048989256 -0.0772939984898 0.0
-0.108626432068 0.167850220502 0.0
-0.210404441115 -0.0211419104361 0.0
0.139444389496 0.0335347231936 0.0
-0.0559135135393 0.15503535054 0.0
-0.0571828601951 -0.0946791735046 0.0
-0.0558544534917 0.010357446258 0.0
-0.106400914733 0.150689852452 0.0
-0.13686162048 -0.0933128240025 0.0
-0.0638112830254 0.151983409341 0.0
-0.0504274015159 0.0647099416784 0.0
-0.214836842751 -0.222912375127 0.0
-0.074318874624 -0.0157838201437 0.0
0.775029865966 0.00893314235922 0.0
-0.00200520971683 0.041111933921 0.0
-0.00530079468272 -0.0381598720955 0.0
-0.016014290917 0.000453617498943 0.0
-0.0459120214168 -0.0543442929566 0.0
-0.0486183381461 0.0221704225092 0.0
-0.161724101671 0.0898571658136 0.0
0.0298690890265 -0.068479495168 0.0
-0.0802779472178 0.198066880479 0.0
-0.214050310273 -0.00976927221633 0.0
-0.16408840485 0.00599758695491 0.0
-0.185947273919 -0.0292854042004 0.0
-0.084660329642 0.025987703148 0.0
-0.0840778769062 0.0832718394335 0.0
-0.221458635536 -0.0640424166903 0.0
-0.135466902484 -0.0102798591742 0.0
-0.132792581607 -0.258167869101 0.0
-0.0819389346312 0.195667236848 0.0
-0.0394207338406 -0.0289229770014 0.0
-0.0365988720756 0.0344795379532 0.0
-0.1749388039 -0.367813666681 0.0
-0.0292463543774 0.162549776469 0.0
-0.0371885083286 -0.0183090838196 0.0
-0.0254167126597 0.0380417386951 0.0
-0.0944924136049 0.0111266953842 0.0
0.195048409965 -0.0816315078659 0.0
-0.0639943891633 0.210168158189 0.0
-0.0219362047747 -0.035842893308 0.0
-0.0324626976937 0.0134867637384 0.0
0.413083605406 -0.028957811874 0.0
-0.034612034685 0.172208108013 0.0
-0.0128556976541 -0.0332714930045 0.0
-0.0279509962502 0.00644005982819 0.0
-0.0447129898437 0.115318517059 0.0
-0.0681573260179 0.102552213186 0.0
-0.0632040345738 0.0343067099418 0.0
-0.230592338554 -0.11257372886 0.0
-0.103507672373 -0.0304234725014 0.0
-0.150333231251 0.103399225552 0.0
-0.109083966969 0.0934479545989 0.0
0.767289608237 -0.00428270126622 0.0
-0.00519296789075 0.079195113194 0.0
-0.00165398522094 -0.0134636080077 0.0
-0.0118989206205 0.000863297608907 0.0
-0.0991881961019 0.180841212426 0.0
-0.140315475793 0.113636101718 0.0
-0.0162843860973 -0.14238097726 0.0
-0.011065219062 -0.000615131959691 0.0
0.696821855847 0.0145337673116 0.0
-0.00124935648957 0.0153606617419 0.0
0.504168778301 -0.00062683690659 0.0
-0.0210943926084 0.127607095096 0.0
-0.012369912099 -0.0420217780793 0.0
-0.0286451431783 0.00376941252463 0.0
-0.115560734566 0.130317613419 0.0
-0.0953693706113 0.138226397426 0.0
-0.0915529062484 0.180381591977 0.0
-0.0507813741109 0.0453661303059 0.0
-0.199302020793 0.00409910932349 0.0
0.262860656332 -0.185255052926 0.0
-0.0761154733927 0.256991118669 0.0
-0.00445795629789 -0.00707833505199 0.0
-0.00801998880041 0.00478902241817 0.0
0.484732539821 0.0240449523736 0.0
-0.0152211198737 0.0853318144169 0.0