# vtk DataFile Version 2.0
2D Simulation Python
ASCII
DATASET UNSTRUCTURED_GRID
FIELD FieldData 1
NODES 1 2 int
3798 7382

POINTS 3798 double
0.0 0.0 0.0
1.0 0.0 0.0
1.0 1.0 0.0
0.0 1.0 0.0
0.01886792452826637 0.0 0.0
0.03773584905653053 0.0 0.0
0.05660377358479097 0.0 0.0
0.07547169811305962 0.0 0.0
0.09433962264133271 0.0 0.0
0.1132075471696058 0.0 0.0
0.1320754716978688 0.0 0.0
0.1509433962261159 0.0 0.0
0.1698113207543628 0.0 0.0
0.1886792452826097 0.0 0.0
0.2075471698108566 0.0 0.0
0.2264150943391035 0.0 0.0
0.2452830188673504 0.0 0.0
0.2641509433955972 0.0 0.0
0.2830188679238441 0.0 0.0
0.301886792452091 0.0 0.0
0.3207547169803379 0.0 0.0
0.3396226415085848 0.0 0.0
0.3584905660368317 0.0 0.0
0.3773584905650785 0.0 0.0
0.3962264150933255 0.0 0.0
0.4150943396215723 0.0 0.0
0.4339622641498192 0.0 0.0
0.4528301886780661 0.0 0.0
0.4716981132063129 0.0 0.0
0.4905660377345599 0.0 0.0
0.5094339622628591 0.0 0.0
0.5283018867912108 0.0 0.0
0.5471698113195625 0.0 0.0
0.5660377358479143 0.0 0.0
0.5849056603762659 0.0 0.0
0.6037735849046176 0.0 0.0
0.6226415094329693 0.0 0.0
0.6415094339613208 0.0 0.0
0.6603773584896723 0.0 0.0
0.6792452830180238 0.0 0.0
0.6981132075463754 0.0 0.0
0.7169811320747269 0.0 0.0
0.7358490566030784 0.0 0.0
0.7547169811314299 0.0 0.0
0.7735849056597816 0.0 0.0
0.7924528301881331 0.0 0.0
0.8113207547164847 0.0 0.0
0.8301886792448361 0.0 0.0
0.8490566037731877 0.0 0.0
0.8679245283015392 0.0 0.0
0.8867924528298908 0.0 0.0
0.9056603773582425 0.0 0.0
0.9245283018865939 0.0 0.0
0.9433962264149454 0.0 0.0
0.962264150943297 0.0 0.0
0.9811320754716486 0.0 0.0
1.0 0.01886792452826637 0.0
1.0 0.03773584905653053 0.0
1.0 0.05660377358479097 0.0
1.0 0.07547169811305962 0.0
1.0 0.09433962264133271 0.0
1.0 0.1132075471696058 0.0
1.0 0.1320754716978688 0.0
1.0 0.1509433962261159 0.0
1.0 0.1698113207543628 0.0
1.0 0.1886792452826097 0.0
1.0 0.2075471698108566 0.0
1.0 0.2264150943391035 0.0
1.0 0.2452830188673504 0.0
1.0 0.2641509433955972 0.0
1.0 0.2830188679238441 0.0
1.0 0.301886792452091 0.0
1.0 0.3207547169803379 0.0
1.0 0.3396226415085848 0.0
1.0 0.3584905660368317 0.0
1.0 0.3773584905650785 0.0
1.0 0.3962264150933255 0.0
1.0 0.4150943396215723 0.0
1.0 0.4339622641498192 0.0
1.0 0.4528301886780661 0.0
1.0 0.4716981132063129 0.0
1.0 0.4905660377345599 0.0
1.0 0.5094339622628591 0.0
1.0 0.5283018867912108 0.0
1.0 0.5471698113195625 0.0
1.0 0.5660377358479143 0.0
1.0 0.5849056603762659 0.0
1.0 0.6037735849046176 0.0
1.0 0.6226415094329693 0.0
1.0 0.6415094339613208 0.0
1.0 0.6603773584896723 0.0
1.0 0.6792452830180238 0.0
1.0 0.6981132075463754 0.0
1.0 0.7169811320747269 0.0
1.0 0.7358490566030784 0.0
1.0 0.7547169811314299 0.0
1.0 0.7735849056597816 0.0
1.0 0.7924528301881331 0.0
1.0 0.8113207547164847 0.0
1.0 0.8301886792448361 0.0
1.0 0.8490566037731877 0.0
1.0 0.8679245283015392 0.0
1.0 0.8867924528298908 0.0
1.0 0.9056603773582425 0.0
1.0 0.9245283018865939 0.0
1.0 0.9433962264149454 0.0
1.0 0.962264150943297 0.0
1.0 0.9811320754716486 0.0
0.9811320754716195 1.0 0.0
0.9622641509432391 1.0 0.0
0.9433962264148587 1.0 0.0
0.9245283018864782 1.0 0.0
0.9056603773580978 1.0 0.0
0.8867924528297173 1.0 0.0
0.8679245283014174 1.0 0.0
0.8490566037732444 1.0 0.0
0.8301886792450734 1.0 0.0
0.8113207547169025 1.0 0.0
0.7924528301887315 1.0 0.0
0.7735849056605606 1.0 0.0
0.7547169811323896 1.0 0.0
0.7358490566042186 1.0 0.0
0.7169811320760476 1.0 0.0
0.6981132075478766 1.0 0.0
0.6792452830197057 1.0 0.0
0.6603773584915346 1.0 0.0
0.6415094339633636 1.0 0.0
0.6226415094351925 1.0 0.0
0.6037735849070215 1.0 0.0
0.5849056603788504 1.0 0.0
0.5660377358506794 1.0 0.0
0.5471698113225083 1.0 0.0
0.5283018867943372 1.0 0.0
0.5094339622661662 1.0 0.0
0.4905660377378905 1.0 0.0
0.4716981132095099 1.0 0.0
0.4528301886811295 1.0 0.0
0.4339622641527489 1.0 0.0
0.4150943396243684 1.0 0.0
0.3962264150959879 1.0 0.0
0.3773584905676074 1.0 0.0
0.358490566039227 1.0 0.0
0.3396226415108468 1.0 0.0
0.3207547169824663 1.0 0.0
0.3018867924540859 1.0 0.0
0.2830188679257056 1.0 0.0
0.2641509433973251 1.0 0.0
0.2452830188689448 1.0 0.0
0.2264150943405645 1.0 0.0
0.2075471698121841 1.0 0.0
0.1886792452838036 1.0 0.0
0.1698113207554234 1.0 0.0
0.150943396227043 1.0 0.0
0.1320754716986625 1.0 0.0
0.1132075471702823 1.0 0.0
0.09433962264190188 1.0 0.0
0.0754716981135215 1.0 0.0
0.05660377358514113 1.0 0.0
0.03773584905676075 1.0 0.0
0.01886792452838049 1.0 0.0
0.0 0.9811320754716195 0.0
0.0 0.9622641509432391 0.0
0.0 0.9433962264148587 0.0
0.0 0.9245283018864782 0.0
0.0 0.9056603773580978 0.0
0.0 0.8867924528297173 0.0
0.0 0.8679245283014174 0.0
0.0 0.8490566037732444 0.0
0.0 0.8301886792450734 0.0
0.0 0.8113207547169025 0.0
0.0 0.7924528301887315 0.0
0.0 0.7735849056605606 0.0
0.0 0.7547169811323896 0.0
0.0 0.7358490566042186 0.0
0.0 0.7169811320760476 0.0
0.0 0.6981132075478766 0.0
0.0 0.6792452830197057 0.0
0.0 0.6603773584915346 0.0
0.0 0.6415094339633636 0.0
0.0 0.6226415094351925 0.0
0.0 0.6037735849070215 0.0
0.0 0.5849056603788504 0.0
0.0 0.5660377358506794 0.0
0.0 0.5471698113225083 0.0
0.0 0.5283018867943372 0.0
0.0 0.5094339622661662 0.0
0.0 0.4905660377378905 0.0
0.0 0.4716981132095099 0.0
0.0 0.4528301886811295 0.0
0.0 0.4339622641527489 0.0
0.0 0.4150943396243684 0.0
0.0 0.3962264150959879 0.0
0.0 0.3773584905676074 0.0
0.0 0.358490566039227 0.0
0.0 0.3396226415108468 0.0
0.0 0.3207547169824663 0.0
0.0 0.3018867924540859 0.0
0.0 0.2830188679257056 0.0
0.0 0.2641509433973251 0.0
0.0 0.2452830188689448 0.0
0.0 0.2264150943405645 0.0
0.0 0.2075471698121841 0.0
0.0 0.1886792452838036 0.0
0.0 0.1698113207554234 0.0
0.0 0.150943396227043 0.0
0.0 0.1320754716986625 0.0
0.0 0.1132075471702823 0.0
0.0 0.09433962264190188 0.0
0.0 0.0754716981135215 0.0
0.0 0.05660377358514113 0.0
0.0 0.03773584905676075 0.0
0.0 0.01886792452838049 0.0
0.49961422419268997 0.4984293794066726 0.0
0.7093511500970902 0.706792936500378 0.0
0.29287482782244045 0.7110496278611782 0.0
0.7065208514432915 0.2921137893028175 0.0
0.2917146567058879 0.2951459957249887 0.0
0.5010883512796402 0.783530677658598 0.0
0.2164159732426224 0.5012876322837192 0.0
0.7820505253934122 0.4994927647991782 0.0
0.4969563419356505 0.21663804071479492 0.0
0.8269192007901067 0.8287013252031155 0.0
0.1712682973217082 0.8268730922835856 0.0
0.8299941553097447 0.17180608262880254 0.0
0.17180615988223974 0.17000622072452293 0.0
0.5640959313975822 0.6420224840910225 0.0
0.36076803388570655 0.5671667288006801 0.0
0.641160245161879 0.4320186669377829 0.0
0.4354935082651592 0.36378759861759746 0.0
0.6410454186381067 0.8479832937118897 0.0
0.1518368310809157 0.6410829539811169 0.0
0.8477907051244511 0.3598243790179788 0.0
0.35938579904680457 0.15130729784326102 0.0
0.8497305928919907 0.6399401683101269 0.0
0.3617952267412937 0.8474454291453152 0.0
0.6436051449793575 0.15189469658234833 0.0
0.15079737625026685 0.3588783576988489 0.0
0.6832039587940572 0.5823618751624478 0.0
0.4454396775914624 0.6627381531764 0.0
0.33424594078221964 0.4385872006022409 0.0
0.5773189844856303 0.3195812160927133 0.0
0.5368082180804761 0.8869865896668006 0.0
0.11301341973883329 0.5368082072162796 0.0
0.8863497125425446 0.46278650800142523 0.0
0.46231798559604276 0.1137357048419064 0.0
0.735504344602733 0.8878298811845817 0.0
0.11217246241749894 0.7355045289688809 0.0
0.8876386118329569 0.26464529586215935 0.0
0.26447675721717134 0.11218714573944835 0.0
0.8918893682153743 0.7430319146751548 0.0
0.7378676821853629 0.10938784471235846 0.0
0.2618554236513495 0.8907466135047526 0.0
0.10927139946373736 0.2618885660485004 0.0
0.6036356850091371 0.740958324467786 0.0
0.2594197395873493 0.6024781400358834 0.0
0.7471835282093033 0.3970113006814754 0.0
0.39635295506120277 0.25856270415268773 0.0
0.5973835830959042 0.5282120591728078 0.0
0.5269880475515504 0.40324375384926064 0.0
0.900344051349824 0.09737126935472232 0.0
0.09737116846728401 0.09965601878423913 0.0
0.9027736024298996 0.9004379740924425 0.0
0.09965486244215357 0.9026299600545967 0.0
0.3830054844266893 0.7484876862569074 0.0
0.25074672726321157 0.3828059459383084 0.0
0.9036934196956306 0.5634343341860331 0.0
0.436167023944368 0.903809418557912 0.0
0.5634650142808684 0.09627038765249357 0.0
0.09611428176536896 0.43622888244072316 0.0
0.7383691909253696 0.7977530090605311 0.0
0.20213608094646243 0.7381864461382426 0.0
0.7965379729869333 0.25833485688790847 0.0
0.25825176979143294 0.20343822649683996 0.0
0.8016496201203362 0.7232057683389532 0.0
0.27776554876540255 0.7985644202275013 0.0
0.7230025466734626 0.19888476423555862 0.0
0.20134253349952064 0.2778412830843111 0.0
0.48914355287031674 0.5909586444150075 0.0
0.4113298235007088 0.49483643887222295 0.0
0.7553604068177817 0.6323161440656005 0.0
0.6323326401346647 0.2446343261447706 0.0
0.3558016573651024 0.6535168196958461 0.0
0.6947272998992697 0.49553252027219197 0.0
0.34695271761644664 0.35520182412877976 0.0
0.49374473330545476 0.3082796821038452 0.0
0.8187154539118972 0.9148861354006228 0.0
0.08511383208187207 0.8187154148724425 0.0
0.9150328940734902 0.18133025458140606 0.0
0.18128457425270267 0.0851129709589244 0.0
0.8187403987114168 0.08420346742597412 0.0
0.9157746719419576 0.8186373542270347 0.0
0.08420340483892619 0.18125955209024192 0.0
0.18126035834340148 0.9157847355643594 0.0
0.6491759294498078 0.6582605894876106 0.0
0.518075563238964 0.700155561243168 0.0
0.2994944160935228 0.5182519107636043 0.0
0.6529572976260253 0.35254842454839763 0.0
0.6097401473872117 0.9217208439447089 0.0
0.07827850601264716 0.6097398708442259 0.0
0.9217267277120186 0.3902548071573767 0.0
0.39024121399465406 0.07825838690395835 0.0
0.9257398577009572 0.6657069734842804 0.0
0.6657516430505073 0.07518432263878908 0.0
0.3341866530930919 0.9246109018771522 0.0
0.07542270790545244 0.3342243925275289 0.0
0.8225798016625723 0.5644120390192462 0.0
0.43501894509773303 0.8272239480204406 0.0
0.5644015723185061 0.17743228884395235 0.0
0.1728552698143025 0.4351788286843611 0.0
0.5668992511560398 0.812632221934239 0.0
[...]
POINT_DATA 3798
VECTORS vector double
0.0 0.0 0.0
0.0 0.0 0.0
0.0 0.0 0.0
0.0 0.0 0.0
0.0 0.0 0.0
0.0 0.0 0.0
0.0 0.0 0.0
0.0 0.0 0.0
0.0 0.0 0.0
0.0 0.0 0.0
0.0 0.0 0.0
0.0 0.0 0.0
0.0 0.0 0.0
0.0 0.0 0.0
0.0 0.0 0.0
0.0 0.0 0.0
0.0 0.0 0.0
0.0 0.0 0.0
0.0 0.0 0.0
0.0 0.0 0.0
0.0 0.0 0.0
0.0 0.0 0.0
0.0 0.0 0.0
0.0 0.0 0.0
0.0 0.0 0.0
0.0 0.0 0.0
0.0 0.0 0.0
0.0 0.0 0.0
0.0 0.0 0.0
0.0 0.0 0.0
0.0 0.0 0.0
0.0 0.0 0.0
0.0 0.0 0.0
0.0 0.0 0.0
0.0 0.0 0.0
0.0 0.0 0.0
0.0 0.0 0.0
0.0 0.0 0.0
0.0 0.0 0.0
0.0 0.0 0.0
0.0 0.0 0.0
0.0 0.0 0.0
0.0 0.0 0.0
0.0 0.0 0.0
0.0 0.0 0.0
0.0 0.0 0.0
0.0 0.0 0.0
0.0 0.0 0.0
0.0 0.0 0.0
0.0 0.0 0.0
0.0 0.0 0.0
0.0 0.0 0.0
0.0 0.0 0.0
0.0 0.0 0.0
0.0 0.0 0.0
0.0 0.0 0.0
0.0 0.0 0.0
0.0 0.0 0.0
0.0 0.0 0.0
0.0 0.0 0.0
0.0 0.0 0.0
0.0 0.0 0.0
0.0 0.0 0.0
0.0 0.0 0.0
0.0 0.0 0.0
0.0 0.0 0.0
0.0 0.0 0.0
0.0 0.0 0.0
0.0 0.0 0.0
0.0 0.0 0.0
0.0 0.0 0.0
0.0 0.0 0.0
0.0 0.0 0.0
0.0 0.0 0.0
0.0 0.0 0.0
0.0 0.0 0.0
0.0 0.0 0.0
0.0 0.0 0.0
0.0 0.0 0.0
0.0 0.0 0.0
0.0 0.0 0.0
0.0 0.0 0.0
0.0 0.0 0.0
0.0 0.0 0.0
0.0 0.0 0.0
0.0 0.0 0.0
0.0 0.0 0.0
0.0 0.0 0.0
0.0 0.0 0.0
0.0 0.0 0.0
0.0 0.0 0.0
0.0 0.0 0.0
0.0 0.0 0.0
0.0 0.0 0.0
0.0 0.0 0.0
0.0 0.0 0.0
0.0 0.0 0.0
0.0 0.0 0.0
0.0 0.0 0.0
0.0 0.0 0.0
0.0 0.0 0.0
0.0 0.0 0.0
0.0 0.0 0.0
0.0 0.0 0.0
0.0 0.0 0.0
0.0 0.0 0.0
0.0 0.0 0.0
0.0 0.0 0.0
1.0 0.0 0.0
1.0 0.0 0.0
1.0 0.0 0.0
1.0 0.0 0.0
1.0 0.0 0.0
1.0 0.0 0.0
1.0 0.0 0.0
1.0 0.0 0.0
1.0 0.0 0.0
1.0 0.0 0.0
1.0 0.0 0.0
1.0 0.0 0.0
1.0 0.0 0.0
1.0 0.0 0.0
1.0 0.0 0.0
1.0 0.0 0.0
1.0 0.0 0.0
1.0 0.0 0.0
1.0 0.0 0.0
1.0 0.0 0.0
1.0 0.0 0.0
1.0 0.0 0.0
1.0 0.0 0.0
1.0 0.0 0.0
1.0 0.0 0.0
1.0 0.0 0.0
1.0 0.0 0.0
1.0 0.0 0.0
1.0 0.0 0.0
1.0 0.0 0.0
1.0 0.0 0.0
1.0 0.0 0.0
1.0 0.0 0.0
1.0 0.0 0.0
1.0 0.0 0.0
1.0 0.0 0.0
1.0 0.0 0.0
1.0 0.0 0.0
1.0 0.0 0.0
1.0 0.0 0.0
1.0 0.0 0.0
1.0 0.0 0.0
1.0 0.0 0.0
1.0 0.0 0.0
1.0 0.0 0.0
1.0 0.0 0.0
1.0 0.0 0.0
1.0 0.0 0.0
1.0 0.0 0.0
1.0 0.0 0.0
1.0 0.0 0.0
1.0 0.0 0.0
0.0 0.0 0.0
0.0 0.0 0.0
0.0 0.0 0.0
0.0 0.0 0.0
0.0 0.0 0.0
0.0 0.0 0.0
0.0 0.0 0.0
0.0 0.0 0.0
0.0 0.0 0.0
0.0 0.0 0.0
0.0 0.0 0.0
0.0 0.0 0.0
0.0 0.0 0.0
0.0 0.0 0.0
0.0 0.0 0.0
0.0 0.0 0.0
0.0 0.0 0.0
0.0 0.0 0.0
0.0 0.0 0.0
0.0 0.0 0.0
0.0 0.0 0.0
0.0 0.0 0.0
0.0 0.0 0.0
0.0 0.0 0.0
0.0 0.0 0.0
0.0 0.0 0.0
0.0 0.0 0.0
0.0 0.0 0.0
0.0 0.0 0.0
0.0 0.0 0.0
0.0 0.0 0.0
0.0 0.0 0.0
0.0 0.0 0.0
0.0 0.0 0.0
0.0 0.0 0.0
0.0 0.0 0.0
0.0 0.0 0.0
0.0 0.0 0.0
0.0 0.0 0.0
0.0 0.0 0.0
0.0 0.0 0.0
0.0 0.0 0.0
0.0 0.0 0.0
0.0 0.0 0.0
0.0 0.0 0.0
0.0 0.0 0.0
0.0 0.0 0.0
0.0 0.0 0.0
0.0 0.0 0.0
0.0 0.0 0.0
0.0 0.0 0.0
0.0 0.0 0.0
-0.189330365516 0.0484582758581 0.0
-0.148750798546 -0.147749731066 0.0
-0.0867452409525 0.205020529048 0.0
-0.0858863624118 -0.0590322631603 0.0
-0.0693713664369 0.0528086962036 0.0
0.0175520303681 0.105935574633 0.0
-0.0685355999943 0.139592595856 0.0
-0.164993353357 -0.197361614321 0.0
-0.0887489625101 0.00122018398834 0.0
0.0129715241822 -0.302373206045 0.0
-0.075223279784 0.234770295413 0.0
-0.0186004829907 -0.0191813382413 0.0
-0.0212666546456 0.0195332295232 0.0
-0.175349327445 0.0431098122871 0.0
-0.133976708845 0.150444959864 0.0
-0.177077211581 -0.0758335496649 0.0
-0.13093715915 0.0406593687837 0.0
0.233061678371 -0.00123653304066 0.0
-0.0490215292153 0.188798152244 0.0
-0.0481988885123 -0.0839022053141 0.0
-0.053769630775 0.0131061069208 0.0
-0.162634711199 -0.356374403624 0.0
0.0803808316901 0.12284191298 0.0
-0.0528045617295 -0.0146054204893 0.0
-0.0322589274042 0.0712758578052 0.0
-0.23834839339 -0.131911130988 0.0
-0.1245229554 0.142208241776 0.0
-0.115380472502 0.10112607987 0.0
-0.127162761375 -0.0247775433613 0.0
0.34517692857 0.0379353153652 0.0
-0.0265259317823 0.125431676895 0.0
-0.05054508377 -0.131980237571 0.0
-0.0503472688918 0.00238361194443 0.0
0.349551002956 -0.0646946873586 0.0
-0.04285302217 0.209515821001 0.0
-0.0147043144362 -0.0314421974968 0.0
-0.028724499213 0.0096915052547 0.0
-0.123747242049 -0.468538742931 0.0
-0.0258626434031 -0.0100346793557 0.0
0.103216945996 0.122434571824 0.0
-0.0145652105346 0.0330960918239 0.0
-0.0521068273059 0.0242345412339 0.0
-0.0915518382167 0.184420926034 0.0
-0.114970449498 -0.116073198008 0.0
-0.0895147170772 0.027425209397 0.0
-0.222740188716 -0.0305041691748 0.0
-0.168408842927 0.00474983624864 0.0
-0.00309913139177 -0.00327764420186 0.0
-0.00459998678481 0.0046886145778 0.0
0.0582081035516 -0.370158457252 0.0
-0.0787248179292 0.25275363937 0.0
-0.0571059290773 0.170241102173 0.0
-0.0720675715948 0.0878474662096 0.0
-0.0683713974933 -0.211708266389 0.0
0.355758020302 0.0505942881706 0.0
-0.0433279030053 -0.00340268676234 0.0
-0.0182282153454 0.0794196519522 0.0
0.0348981628084 -0.146251287222 0.0
-0.0733189710413 0.227662658562 0.0
-0.0430607771343 -0.0472548289911 0.0
-0.0449171899057 0.0286747591734 0.0
-0.160718417142 -0.334065728439 0.0
-0.0490412015445 0.194498519882 0.0
-0.0502141464429 -0.0303328938084 0.0
-0.0412397522859 0.049338159262 0.0
-0.17515423976 0.092346807855 0.0
-0.155194186869 0.100569484465 0.0
-0.222915683521 -0.248875333931 0.0
-0.0886962496716 -0.0304826673224 0.0
-0.11351949942 0.179493069001 0.0
-0.208634270721 -0.134378591819 0.0
-0.10287072127 0.0651560243107 0.0
-0.121308507908 0.00791384582556 0.0
0.362099787692 -0.114774382289 0.0
-0.0558302081834 0.233556088014 0.0
-0.00514009404757 -0.010218168331 0.0
-0.0121167647298 0.00576196733475 0.0
-0.00982964608439 -0.00563036307273 0.0
-0.0906955646848 -0.516299931844 0.0
-0.00699222477907 0.0134850604817 0.0
0.0927821821727 0.145222537726 0.0
-0.190383944228 -0.062422361097 0.0
-0.104480662601 0.0996370476236 0.0
-0.107124798747 0.144237943237 0.0
-0.136815512522 -0.0626212793383 0.0
0.543966484295 0.00502671762166 0.0
-0.0169614145994 0.124030079088 0.0
-0.0167825534491 -0.0574120313929 0.0
-0.0333741923987 0.00323415095234 0.0
-0.0684037091279 -0.305155362355 0.0
-0.0265214274504 -0.00481137023492 0.0
0.367008840098 0.0549865133067 0.0
-0.00945676707891 0.0406158341456 0.0
-0.156900884113 -0.272671192293 0.0
0.08080479772 0.113306563077 0.0
-0.0668117207028 -0.00844350063683 0.0
-0.0451545001204 0.105586381564 0.0
0.106238491654 0.0556482508182 0.0
-0.0600906838634 0.166650739856 0.0
-0.0921131654097 -0.140186862072 0.0
-0.0728089514073 0.0101125552267 0.0
-0.162116333992 0.0538898317628 0.0
-0.075635296376 -0.0839698453488 0.0
-0.0648694751011 0.0281374718504 0.0
0.0264392989766 -0.0449856022542 0.0
-0.0794752474503 0.209031763449 0.0
-0.203415345874 -0.0214767103877 0.0
0.570954868436 -0.0125486736662 0.0
-0.017308776062 0.142854722604 0.0
-0.00915202386181 -0.0317383043719 0.0
-0.0256077787695 0.00405121856316 0.0
-0.219434921576 -0.21819035211 0.0
-0.0983670234593 -0.0148116417076 0.0
-0.151722521795 0.134795612393 0.0
-0.072566499202 0.144246381703 0.0
-0.0844954320727 0.115715243843 0.0
-0.220417680468 -0.0331320180669 0.0
-0.168856371932 -0.0352151980308 0.0
-0.131194472468 0.0713638623583 0.0
-0.210561244949 0.0253200619852 0.0
-0.175104735494 0.0981167519802 0.0
0.555708600512 0.0184756817383 0.0
-0.0101966922972 0.0764475483552 0.0
-0.0241325444885 -0.111280307345 0.0
-0.0331438813679 -0.000344997264102 0.0
0.151235225915 0.0821569782202 0.0
-0.0412995893444 0.12538300528 0.0
-0.111828584793 -0.204143813589 0.0
-0.0672489409762 -9.89705391932e-05 0.0
0.209170286064 -0.0572345606069 0.0
-0.0564963505572 0.213598131294 0.0
-0.0354084610193 -0.056207055449 0.0
-0.0455113755196 0.0171201119704 0.0
-0.116919875924 -0.395991596678 0.0
-0.0401180294628 0.195312395704 0.0
-0.0300959118442 -0.020771139579 0.0
-0.0253927784107 0.032569573997 0.0
-0.0621021312883 0.189774240082 0.0
-0.0599211596593 0.0653919725234 0.0
-0.0873235755368 0.0453876823735 0.0
-0.0353011600805 -0.191063426891 0.0
-0.0260827325629 -0.00240397200753 0.0
0.525636107108 0.0259664360314 0.0
-0.00722561739527 0.0455631446226 0.0
-0.0979943205392 0.195517514227 0.0
-0.166495434527 -0.150078927741 0.0
-0.111712587265 0.0258394130679 0.0
-0.000255344184912 -0.000348296245938 0.0
-0.000728716838748 0.000965669072429 0.0
0.072870231512 -0.348462735006 0.0
-0.0635401834552 0.270876953025 0.0
0.630111834758 0.00976919175143 0.0
-0.00867165029802 0.0860843384793 0.0
-0.0134093518397 -0.064939800427 0.0
-0.0289198157633 0.000952378863614 0.0
0.596851365317 -0.0288327032043 0.0
-0.0176536768823 0.159475481175 0.0
-0.00368291067802 -0.0116982348242 0.0
-0.0131146663318 0.00297579717244 0.0
-0.0616904878959 -0.404230807987 0.0
-0.0111943948518 -0.00313297928476 0.0
0.355220358396 0.0624387266695 0.0
-0.00427052643415 0.0160127176683 0.0
0.14172038591 -0.159899304635 0.0
-0.0695163930277 0.23819519193 0.0
-0.0215165877075 -0.0303669310998 0.0
-0.0300767558281 0.0175675219982 0.0
-0.167396464024 -0.410521465144 0.0
0.0491824940314 0.145029187857 0.0
-0.0426429639324 -0.0176503741786 0.0
-0.0276818789299 0.0519643913883 0.0
-0.0368062831936 0.0806606712904 0.0
-0.0894965545387 0.160883930093 0.0
-0.11248918961 -0.0813132920294 0.0
-0.158652812177 0.0927624763354 0.0
-0.13197130781 0.128278140383 0.0
-0.120068817002 -0.0466803276625 0.0
-0.211359776907 -0.154070211062 0.0
-0.106898598371 -0.0490777740158 0.0
-0.113792873943 0.054541413467 0.0
-0.109664319087 0.165553590577 0.0
-0.151479617826 -0.0921974189361 0.0
-0.232194987509 -0.0916229675681 0.0
-0.146845388119 -0.00571416277481 0.0
0.456487947438 -0.0994164422907 0.0
-0.0499430284209 0.228787389607 0.0
-0.00142494937961 -0.00269170401958 0.0
-0.00430353849139 0.00206588576457 0.0
-0.00280591299375 -0.00165784976728 0.0
-0.0632192002381 -0.513466701983 0.0
-0.0021709883268 0.00470333932527 0.0
0.164862295509 0.120876333715 0.0
-0.0902896769194 0.187828888499 0.0
-0.0941241448353 0.0861281174168 0.0
-0.0976619160575 0.0128185996584 0.0
0.304944095099 0.0274006111717 0.0
-0.035581119909 0.154776908172 0.0
-0.0469496044518 -0.10459133197 0.0
-0.0516718763284 0.00628863145097 0.0
-0.105868944853 -0.209562196797 0.0
-0.076609449285 0.215346038376 0.0
-0.0592430761206 -0.0464134168179 0.0
-0.0520768880802 0.0424359613954 0.0
-0.190065351858 -0.248421099168 0.0
-0.074532762205 -0.0397771672063 0.0
0.0778390631586 0.0170634591361 0.0
-0.0698499224251 0.19120992358 0.0
-0.0819276585863 -0.109937125757 0.0
-0.0716252165592 0.019147480544 0.0
-0.0462741729104 -0.309035917157 0.0
-0.0150808565233 -0.00274496064904 0.0
0.483059643432 0.0340450531554 0.0
-0.00422205959332 0.0224605572658 0.0
0.105590069797 -0.292614423708 0.0
-0.0817765777132 0.253016851951 0.0
-0.00916061879739 -0.0105549351868 0.0
-0.0126145476422 0.0108989577485 0.0
0.00867233985523 0.148372300765 0.0
-0.052439017359 0.0890213927 0.0
-0.212821300191 -0.0721632742382 0.0
-0.139708913329 0.0218072523853 0.0
-0.0961182886113 0.166784440722 0.0
-0.0386835359474 -0.249722807729 0.0
-0.0766380866141 0.226853936544 0.0
-0.0338512611008 -0.0321171763221 0.0
-0.0349387577578 0.0299912649045 0.0
-0.0808170275499 0.0710865101174 0.0
-0.10191987157 -0.290258095347 0.0
0.249626249988 0.074382945378 0.0
-0.0444226866718 -0.00691590552989 0.0
-0.0204210781961 0.0708704136665 0.0
-0.196401326272 -0.307294534685 0.0
-0.0688858735953 -0.0178788631586 0.0
-0.185030574827 0.0304536949833 0.0
-0.200684216304 0.0105676445659 0.0
-0.10889255556 0.0443713106829 0.0
-0.19965907938 -0.337013170749 0.0
-0.062233760793 -0.0256167312578 0.0
-0.0134522797718 0.166327679985 0.0
-0.0423798082893 0.0649357421291 0.0
-0.151538512349 0.125086207292 0.0
-0.0165002415628 -0.106908564613 0.0
-0.0219505610663 -0.000775366933637 0.0
0.669118499737 0.0140143785104 0.0
-0.00443058508346 0.0447122657719 0.0
-0.116113300952 0.174620647778 0.0
-0.174728841232 -0.116462517444 0.0
-0.0922678523038 -0.449704884912 0.0
-0.0272994129424 0.191662516282 0.0
-0.0181058348022 -0.0125793324526 0.0
-0.0152106785023 0.0216602200907 0.0
0.337293134327 0.0555857572139 0.0
-0.0232007107398 0.103097437277 0.0
-0.0638358046127 -0.172311944362 0.0
-0.0483879593179 -0.000423047061861 0.0
-0.17095280675 0.0708064725482 0.0
-0.0178627084313 0.141285702455 0.0
-0.067542392021 0.109864025995 0.0
0.348136027081 -0.0257890848618 0.0
-0.0392597944673 0.188162295877 0.0
-0.0239854853424 -0.0525505230238 0.0
-0.0385089582655 0.00984463691903 0.0
-0.195873573823 0.0577023564458 0.0
0.694582743637 -0.0101932783489 0.0
-0.00901019463631 0.116719083734 0.0
-0.00321815042482 -0.0144911133635 0.0
-0.0145298553116 0.00219041462589 0.0
-0.136227855365 0.0963985174226 0.0
0.716240623295 -0.00596147593919 0.0
-0.00821284146796 0.0906222715044 0.0
-0.00412949865663 -0.026218632351 0.0
-0.0185332439907 0.00115822166353 0.0
-0.228391958643 -0.158033004784 0.0
-0.111545883995 -0.0107635270231 0.0
-0.129256082568 0.160509676931 0.0
-0.149963553838 0.126976638531 0.0
-0.234710046753 -0.185537302367 0.0
-0.107521406031 -0.028853110421 0.0
0.186714908657 -0.176951383765 0.0
-0.0717308352558 0.245976307956 0.0
-0.0116219854394 -0.0181598584777 0.0
-0.0193366722337 0.0116947598396 0.0
-0.056110915994 -0.107434769607 0.0
-0.084533922607 0.215258071285 0.0
-0.0706244833099 -0.0657136439651 0.0
-0.0593881500961 0.0382659944595 0.0
-0.0420200722307 -0.446096821865 0.0
-0.00842172098695 -0.00689602433032 0.0
-0.0467631617438 0.210249162043 0.0
-0.00843341855728 0.011033062463 0.0
-0.162855987118 0.00347569907848 0.0
-0.199466772695 -0.182202107857 0.0
-0.102556796475 -0.000718391399331 0.0
-0.128956723379 -0.145678471727 0.0
-0.108972678496 0.0819253542978 0.0
-0.183079845761 -0.236617193334 0.0
-0.0841400666578 -0.00721646281415 0.0
-0.132081172258 0.160676951042 0.0
-0.184804330402 0.0623328997966 0.0
-0.0605083643066 0.117203672509 0.0
-0.103183571295 0.133764537558 0.0
-0.0861562869615 0.13721006452 0.0
-0.104112398699 0.121403026535 0.0
-0.222606099204 -0.0840735959339 0.0
-0.153898467875 -0.0645575291969 0.0
-0.137884159834 -0.0442580741765 0.0
0.648409536664 -0.0328032047377 0.0
-0.0183535961161 0.151229269714 0.0
-0.00129925932509 -0.00467342323736 0.0
-0.00651670947572 0.00158275983305 0.0
-0.00498233886042 -0.00127040619741 0.0
-0.0437432969401 -0.394181490264 0.0
-0.00161921211861 0.00767923193534 0.0
0.433314203072 0.0511618623382 0.0
0.0176365254467 0.0505272467614 0.0
-0.0748497582289 0.175919756756 0.0
-0.0205811417878 -0.170437534739 0.0
-0.0161709421249 -0.00156994202998 0.0
0.647453804379 0.0133019932048 0.0
-0.00326347614181 0.0270099090318 0.0
0.204242750219 0.0615347148328 0.0
-0.0440093198181 0.143459746479 0.0
-0.0936432617846 -0.163764155219 0.0
-0.0646095965482 0.00376692018889 0.0
0.780696059814 0.00369477455972 0.0
-0.0041502677952 0.0627163797792 0.0
-0.00470010498448 -0.0290651356431 0.0
-0.0167217988473 0.000873308248324 0.0
-0.121740919164 -0.413960137624 0.0
-0.039404832177 -0.0109541299651 0.0
0.13282937305 0.108358625444 0.0
-0.0229052885366 0.0581947380627 0.0
0.206682590082 0.0809552917875 0.0
-0.102995173122 -0.237415924627 0.0
-0.0309898651115 0.100631764041 0.0
-0.0565230338054 -0.00414553607124 0.0
-0.149118475459 -0.309594180228 0.0
0.12161725903 0.110198224629 0.0
-0.0575161231897 -0.0103560807188 0.0
-0.0351434724528 0.0861126401439 0.0
-0.0901745450552 0.201156129524 0.0
-0.0799413319641 0.0332823847442 0.0
-0.108778407223 -0.493841049899 0.0
-0.0163682728917 -0.0073689477081 0.0
0.116017930172 0.124614958533 0.0
-0.00937462528531 0.0217207642908 0.0
-0.123669104366 0.0215190407244 0.0
0.352682675442 -0.0998091420054 0.0
-0.0495655987812 0.22524898958 0.0
-0.00834347761234 -0.017097115033 0.0
-0.0186844483817 0.00767238691564 0.0
-0.151806570401 0.0806851188766 0.0
-0.178759554803 -0.041111298095 0.0
-0.115934127047 0.0608551075471 0.0
0.381755559433 0.00495828470833 0.0
-0.0307763919107 0.16156969447 0.0
-0.0283883022157 -0.0710916258103 0.0
-0.0425638744227 0.00704742517768 0.0
-0.000436968353387 -0.000514105311532 0.0
-0.00121551064493 0.000956508692977 0.0
0.375001395852 -0.155351445445 0.0
-0.000503727681126 -0.000493215665282 0.0
-0.0681133091585 0.267989422207 0.0
-0.0451118767724 -0.488075008936 0.0
-0.000722851316127 0.00150331126989 0.0
0.214106566522 0.11465403932 0.0
-0.0817762902526 0.0157206104247 0.0
-0.0535860295229 -0.0765265684512 0.0
-0.0549661138849 0.0195933128558 0.0
0.0529761440558 0.0779626999719 0.0
-0.0709454121799 0.158931552626 0.0
-0.139771636772 0.0764950129073 0.0
-0.123188599079 0.14711606406 0.0
-0.140719584236 -0.375563452739 0.0
-0.0303410555493 -0.00866956220428 0.0
0.200463223681 0.0886982613839 0.0
-0.0146266204449 0.0428932339118 0.0
0.123244167464 -0.0361632370255 0.0
-0.0641400376265 0.209092738884 0.0
-0.113449105789 -0.0644292810678 0.0
-0.0916955908197 0.0591033882733 0.0
-0.142878166247 0.0546446898461 0.0
0.454322949709 0.0180611773717 0.0
-0.021101011239 0.124711162423 0.0
-0.0289134922938 -0.0881383266832 0.0
-0.0408996766306 0.0028347867843 0.0
0.0690909407903 0.109437024531 0.0
-0.0575057976749 0.124509805144 0.0
-0.187535848033 -0.0163010489702 0.0
-0.16904298712 -0.0958819633507 0.0
-0.0816883557219 0.00771753118221 0.0
-0.121735951557 -0.17429576059 0.0
-0.205506313667 0.0117327783401 0.0
-0.12640518422 0.00463676415096 0.0
-0.158811688154 0.0272234059113 0.0
-0.0396619044341 -0.0160796231814 0.0
-0.101744222566 -0.0969113801576 0.0
-0.0958921055384 0.19617398667 0.0
-0.201668364341 -0.0322408259771 0.0
0.172929895876 0.0296548884737 0.0
-0.0544095415496 0.178018838926 0.0
-0.0684636169712 -0.11544389477 0.0
-0.0642086246683 0.0123409976711 0.0
-0.105053871794 0.180981313648 0.0
-0.162072315484 -0.11826021093 0.0
-0.0393787822418 0.171902029076 0.0
-0.0583911678916 0.078641414634 0.0
-0.220141625852 -0.262393890454 0.0
-0.0874384059774 -0.0208104107994 0.0
0.78361399175 0.00892371956297 0.0
-0.00204030913074 0.0473204776746 0.0
-0.00621485754058 -0.0445934059438 0.0
-0.0171373368337 0.000468306772738 0.0
-0.0546094490808 -0.0654362873169 0.0
-0.0561415266645 0.0266476572565 0.0
-0.167065131868 0.111368736297 0.0
0.0612131518572 -0.0824699973152 0.0
-0.0716996190364 0.219734427059 0.0
-0.224092853945 -0.0148915751556 0.0
-0.190100833797 0.00853920829231 0.0
-0.211977346001 -0.0371094316272 0.0
-0.100492382514 0.0325061992057 0.0
-0.096344411569 0.10393702225 0.0
-0.233152006902 -0.0813178490341 0.0
-0.162525526922 -0.0128735713246 0.0
-0.108376895423 -0.280497934749 0.0
-0.0672921605894 0.212492437558 0.0
-0.0445340340284 -0.0346213463231 0.0
-0.0423506258098 0.0411022735598 0.0
-0.161057440718 -0.397329195333 0.0
-0.0147616586702 0.174237444672 0.0
-0.0409758640263 -0.0220505028139 0.0
-0.0293138851928 0.0449678544429 0.0
-0.1130378 0.0136409437276 0.0
0.219162554713 -0.091463165834 0.0
-0.0576151918586 0.224508199368 0.0
-0.0251725817426 -0.0404292693715 0.0
-0.0366691384515 0.0158732146802 0.0
0.431156007838 -0.0339547421883 0.0
-0.0314507790205 0.184114564602 0.0
-0.0149310944943 -0.0365393576314 0.0
-0.031104265589 0.00753135478479 0.0
-0.0130106722935 0.129189696414 0.0
-0.0756837320944 0.124982853813 0.0
-0.0740959883778 0.0421449527216 0.0
-0.227085583371 -0.137788468416 0.0
-0.125176777061 -0.0394771258293 0.0
-0.137576786729 0.120810591489 0.0
-0.122272414158 0.117903193468 0.0
0.77360920599 -0.00473526419509 0.0
-0.00474507719326 0.0840927552203 0.0
-0.00190467173282 -0.0137587781979 0.0
-0.0126063040815 0.00100058937984 0.0
-0.0890119046571 0.207824287063 0.0
-0.144878208706 0.141381378212 0.0
-0.0168669554194 -0.159667859253 0.0
-0.0111299462144 -0.000803359610683 0.0
0.699742994298 0.0152637151435 0.0
-0.00145181445854 0.0178309990926 0.0
0.523717348745 -0.00323266558633 0.0
-0.0198246706469 0.140152596994 0.0
-0.0146926483537 -0.0474682712616 0.0
-0.0316421072261 0.00439821576646 0.0
-0.0932111184971 0.151537071657 0.0
-0.0706321438922 0.15944351434 0.0
-0.0740643643714 0.202802964577 0.0
-0.0592738574228 0.0551097671038 0.0
-0.215969234732 0.00399731799822 0.0
0.271006328472 -0.187101544104 0.0
-0.0746069726667 0.257848716644 0.0
-0.00426803080853 -0.00648678730539 0.0
-0.00860085437282 0.00545029166293 0.0
0.504062673955 0.0253344748011 0.0
-0.0157925936324 0.0984090287575 0.0
-0.0311270104261 -0.103754994653 0.0
-0.038286361545 0.00104469097261 0.0