# vtk DataFile Version 2.0
2D Simulation Python
ASCII
DATASET UNSTRUCTURED_GRID
FIELD FieldData 1
NODES 1 2 int
3798 7382

POINTS 3798 double
0.0 0.0 0.0
1.0 0.0 0.0
1.0 1.0 0.0
0.0 1.0 0.0
0.01886792452826637 0.0 0.0
0.03773584905653053 0.0 0.0
0.05660377358479097 0.0 0.0
0.07547169811305962 0.0 0.0
0.09433962264133271 0.0 0.0
0.1132075471696058 0.0 0.0
0.1320754716978688 0.0 0.0
0.1509433962261159 0.0 0.0
0.1698113207543628 0.0 0.0
0.1886792452826097 0.0 0.0
0.2075471698108566 0.0 0.0
0.2264150943391035 0.0 0.0
0.2452830188673504 0.0 0.0
0.2641509433955972 0.0 0.0
0.2830188679238441 0.0 0.0
0.301886792452091 0.0 0.0
0.3207547169803379 0.0 0.0
0.3396226415085848 0.0 0.0
0.3584905660368317 0.0 0.0
0.3773584905650785 0.0 0.0
0.3962264150933255 0.0 0.0
0.4150943396215723 0.0 0.0
0.4339622641498192 0.0 0.0
0.4528301886780661 0.0 0.0
0.4716981132063129 0.0 0.0
0.4905660377345599 0.0 0.0
0.5094339622628591 0.0 0.0
0.5283018867912108 0.0 0.0
0.5471698113195625 0.0 0.0
0.5660377358479143 0.0 0.0
0.5849056603762659 0.0 0.0
0.6037735849046176 0.0 0.0
0.6226415094329693 0.0 0.0
0.6415094339613208 0.0 0.0
0.6603773584896723 0.0 0.0
0.6792452830180238 0.0 0.0
0.6981132075463754 0.0 0.0
0.7169811320747269 0.0 0.0
0.7358490566030784 0.0 0.0
0.7547169811314299 0.0 0.0
0.7735849056597816 0.0 0.0
0.7924528301881331 0.0 0.0
0.8113207547164847 0.0 0.0
0.8301886792448361 0.0 0.0
0.8490566037731877 0.0 0.0
0.8679245283015392 0.0 0.0
0.8867924528298908 0.0 0.0
0.9056603773582425 0.0 0.0
0.9245283018865939 0.0 0.0
0.9433962264149454 0.0 0.0
0.962264150943297 0.0 0.0
0.9811320754716486 0.0 0.0
1.0 0.01886792452826637 0.0
1.0 0.03773584905653053 0.0
1.0 0.05660377358479097 0.0
1.0 0.07547169811305962 0.0
1.0 0.09433962264133271 0.0
1.0 0.1132075471696058 0.0
1.0 0.1320754716978688 0.0
1.0 0.1509433962261159 0.0
1.0 0.1698113207543628 0.0
1.0 0.1886792452826097 0.0
1.0 0.2075471698108566 0.0
1.0 0.2264150943391035 0.0
1.0 0.2452830188673504 0.0
1.0 0.2641509433955972 0.0
1.0 0.2830188679238441 0.0
1.0 0.301886792452091 0.0
1.0 0.3207547169803379 0.0
1.0 0.3396226415085848 0.0
1.0 0.3584905660368317 0.0
1.0 0.3773584905650785 0.0
1.0 0.3962264150933255 0.0
1.0 0.4150943396215723 0.0
1.0 0.4339622641498192 0.0
1.0 0.4528301886780661 0.0
1.0 0.4716981132063129 0.0
1.0 0.4905660377345599 0.0
1.0 0.5094339622628591 0.0
1.0 0.5283018867912108 0.0
1.0 0.5471698113195625 0.0
1.0 0.5660377358479143 0.0
1.0 0.5849056603762659 0.0
1.0 0.6037735849046176 0.0
1.0 0.6226415094329693 0.0
1.0 0.6415094339613208 0.0
1.0 0.6603773584896723 0.0
1.0 0.6792452830180238 0.0
1.0 0.6981132075463754 0.0
1.0 0.7169811320747269 0.0
1.0 0.7358490566030784 0.0
1.0 0.7547169811314299 0.0
1.0 0.7735849056597816 0.0
1.0 0.7924528301881331 0.0
1.0 0.8113207547164847 0.0
1.0 0.8301886792448361 0.0
1.0 0.8490566037731877 0.0
1.0 0.8679245283015392 0.0
1.0 0.8867924528298908 0.0
1.0 0.9056603773582425 0.0
1.0 0.9245283018865939 0.0
1.0 0.9433962264149454 0.0
1.0 0.962264150943297 0.0
1.0 0.9811320754716486 0.0
0.9811320754716195 1.0 0.0
0.9622641509432391 1.0 0.0
0.9433962264148587 1.0 0.0
0.9245283018864782 1.0 0.0
0.9056603773580978 1.0 0.0
0.8867924528297173 1.0 0.0
0.8679245283014174 1.0 0.0
0.8490566037732444 1.0 0.0
0.8301886792450734 1.0 0.0
0.8113207547169025 1.0 0.0
0.7924528301887315 1.0 0.0
0.7735849056605606 1.0 0.0
0.7547169811323896 1.0 0.0
0.7358490566042186 1.0 0.0
0.7169811320760476 1.0 0.0
0.6981132075478766 1.0 0.0
0.6792452830197057 1.0 0.0
0.6603773584915346 1.0 0.0
0.6415094339633636 1.0 0.0
0.6226415094351925 1.0 0.0
0.6037735849070215 1.0 0.0
0.5849056603788504 1.0 0.0
0.5660377358506794 1.0 0.0
0.5471698113225083 1.0 0.0
0.5283018867943372 1.0 0.0
0.5094339622661662 1.0 0.0
0.4905660377378905 1.0 0.0
0.4716981132095099 1.0 0.0
0.4528301886811295 1.0 0.0
0.4339622641527489 1.0 0.0
0.4150943396243684 1.0 0.0
0.3962264150959879 1.0 0.0
0.3773584905676074 1.0 0.0
0.358490566039227 1.0 0.0
0.3396226415108468 1.0 0.0
0.3207547169824663 1.0 0.0
0.3018867924540859 1.0 0.0
0.2830188679257056 1.0 0.0
0.2641509433973251 1.0 0.0
0.2452830188689448 1.0 0.0
0.2264150943405645 1.0 0.0
0.2075471698121841 1.0 0.0
0.1886792452838036 1.0 0.0
0.1698113207554234 1.0 0.0
0.150943396227043 1.0 0.0
0.1320754716986625 1.0 0.0
0.1132075471702823 1.0 0.0
0.09433962264190188 1.0 0.0
0.0754716981135215 1.0 0.0
0.05660377358514113 1.0 0.0
0.03773584905676075 1.0 0.0
0.01886792452838049 1.0 0.0
0.0 0.9811320754716195 0.0
0.0 0.9622641509432391 0.0
0.0 0.9433962264148587 0.0
0.0 0.9245283018864782 0.0
0.0 0.9056603773580978 0.0
0.0 0.8867924528297173 0.0
0.0 0.8679245283014174 0.0
0.0 0.8490566037732444 0.0
0.0 0.8301886792450734 0.0
0.0 0.8113207547169025 0.0
0.0 0.7924528301887315 0.0
0.0 0.7735849056605606 0.0
0.0 0.7547169811323896 0.0
0.0 0.7358490566042186 0.0
0.0 0.7169811320760476 0.0
0.0 0.6981132075478766 0.0
0.0 0.6792452830197057 0.0
0.0 0.6603773584915346 0.0
0.0 0.6415094339633636 0.0
0.0 0.6226415094351925 0.0
0.0 0.6037735849070215 0.0
0.0 0.5849056603788504 0.0
0.0 0.5660377358506794 0.0
0.0 0.5471698113225083 0.0
0.0 0.5283018867943372 0.0
0.0 0.5094339622661662 0.0
0.0 0.4905660377378905 0.0
0.0 0.4716981132095099 0.0
0.0 0.4528301886811295 0.0
0.0 0.4339622641527489 0.0
0.0 0.4150943396243684 0.0
0.0 0.3962264150959879 0.0
0.0 0.3773584905676074 0.0
0.0 0.358490566039227 0.0
0.0 0.3396226415108468 0.0
0.0 0.3207547169824663 0.0
0.0 0.3018867924540859 0.0
0.0 0.2830188679257056 0.0
0.0 0.2641509433973251 0.0
0.0 0.2452830188689448 0.0
0.0 0.2264150943405645 0.0
0.0 0.2075471698121841 0.0
0.0 0.1886792452838036 0.0
0.0 0.1698113207554234 0.0
0.0 0.150943396227043 0.0
0.0 0.1320754716986625 0.0
0.0 0.1132075471702823 0.0
0.0 0.09433962264190188 0.0
0.0 0.0754716981135215 0.0
0.0 0.05660377358514113 0.0
0.0 0.03773584905676075 0.0
0.0 0.01886792452838049 0.0
0.49961422419268997 0.4984293794066726 0.0
0.7093511500970902 0.706792936500378 0.0
0.29287482782244045 0.7110496278611782 0.0
0.7065208514432915 0.2921137893028175 0.0
0.2917146567058879 0.2951459957249887 0.0
0.5010883512796402 0.783530677658598 0.0
0.2164159732426224 0.5012876322837192 0.0
0.7820505253934122 0.4994927647991782 0.0
0.4969563419356505 0.21663804071479492 0.0
0.8269192007901067 0.8287013252031155 0.0
0.1712682973217082 0.8268730922835856 0.0
0.8299941553097447 0.17180608262880254 0.0
0.17180615988223974 0.17000622072452293 0.0
0.5640959313975822 0.6420224840910225 0.0
0.36076803388570655 0.5671667288006801 0.0
0.641160245161879 0.4320186669377829 0.0
0.4354935082651592 0.36378759861759746 0.0
0.6410454186381067 0.8479832937118897 0.0
0.1518368310809157 0.6410829539811169 0.0
0.8477907051244511 0.3598243790179788 0.0
0.35938579904680457 0.15130729784326102 0.0
0.8497305928919907 0.6399401683101269 0.0
0.3617952267412937 0.8474454291453152 0.0
0.6436051449793575 0.15189469658234833 0.0
0.15079737625026685 0.3588783576988489 0.0
0.6832039587940572 0.5823618751624478 0.0
0.4454396775914624 0.6627381531764 0.0
0.33424594078221964 0.4385872006022409 0.0
0.5773189844856303 0.3195812160927133 0.0
0.5368082180804761 0.8869865896668006 0.0
0.11301341973883329 0.5368082072162796 0.0
0.8863497125425446 0.46278650800142523 0.0
0.46231798559604276 0.1137357048419064 0.0
0.735504344602733 0.8878298811845817 0.0
0.11217246241749894 0.7355045289688809 0.0
0.8876386118329569 0.26464529586215935 0.0
0.26447675721717134 0.11218714573944835 0.0
0.8918893682153743 0.7430319146751548 0.0
0.7378676821853629 0.10938784471235846 0.0
0.2618554236513495 0.8907466135047526 0.0
0.10927139946373736 0.2618885660485004 0.0
0.6036356850091371 0.740958324467786 0.0
0.2594197395873493 0.6024781400358834 0.0
0.7471835282093033 0.3970113006814754 0.0
0.39635295506120277 0.25856270415268773 0.0
0.5973835830959042 0.5282120591728078 0.0
0.5269880475515504 0.40324375384926064 0.0
0.900344051349824 0.09737126935472232 0.0
0.09737116846728401 0.09965601878423913 0.0
0.9027736024298996 0.9004379740924425 0.0
0.09965486244215357 0.9026299600545967 0.0
0.3830054844266893 0.7484876862569074 0.0
0.25074672726321157 0.3828059459383084 0.0
0.9036934196956306 0.5634343341860331 0.0
0.436167023944368 0.903809418557912 0.0
0.5634650142808684 0.09627038765249357 0.0
0.09611428176536896 0.43622888244072316 0.0
0.7383691909253696 0.7977530090605311 0.0
0.20213608094646243 0.7381864461382426 0.0
0.7965379729869333 0.25833485688790847 0.0
0.25825176979143294 0.20343822649683996 0.0
0.8016496201203362 0.7232057683389532 0.0
0.27776554876540255 0.7985644202275013 0.0
0.7230025466734626 0.19888476423555862 0.0
0.20134253349952064 0.2778412830843111 0.0
0.48914355287031674 0.5909586444150075 0.0
0.4113298235007088 0.49483643887222295 0.0
0.7553604068177817 0.6323161440656005 0.0
0.6323326401346647 0.2446343261447706 0.0
0.3558016573651024 0.6535168196958461 0.0
0.6947272998992697 0.49553252027219197 0.0
0.34695271761644664 0.35520182412877976 0.0
0.49374473330545476 0.3082796821038452 0.0
0.8187154539118972 0.9148861354006228 0.0
0.08511383208187207 0.8187154148724425 0.0
0.9150328940734902 0.18133025458140606 0.0
0.18128457425270267 0.0851129709589244 0.0
0.8187403987114168 0.08420346742597412 0.0
0.9157746719419576 0.8186373542270347 0.0
0.08420340483892619 0.18125955209024192 0.0
0.18126035834340148 0.9157847355643594 0.0
0.6491759294498078 0.6582605894876106 0.0
0.518075563238964 0.700155561243168 0.0
0.2994944160935228 0.5182519107636043 0.0
0.6529572976260253 0.35254842454839763 0.0
0.6097401473872117 0.9217208439447089 0.0
0.07827850601264716 0.6097398708442259 0.0
0.9217267277120186 0.3902548071573767 0.0
0.39024121399465406 0.07825838690395835 0.0
0.9257398577009572 0.6657069734842804 0.0
0.6657516430505073 0.07518432263878908 0.0
0.3341866530930919 0.9246109018771522 0.0
0.07542270790545244 0.3342243925275289 0.0
0.8225798016625723 0.5644120390192462 0.0
0.43501894509773303 0.8272239480204406 0.0
0.5644015723185061 0.17743228884395235 0.0
0.1728552698143025 0.4351788286843611 0.0
0.5668992511560398 0.812632221934239 0.0
[...]
POINT_DATA 3798
VECTORS vector double
0.0 0.0 0.0
0.0 0.0 0.0
0.0 0.0 0.0
0.0 0.0 0.0
0.0 0.0 0.0
0.0 0.0 0.0
0.0 0.0 0.0
0.0 0.0 0.0
0.0 0.0 0.0
0.0 0.0 0.0
0.0 0.0 0.0
0.0 0.0 0.0
0.0 0.0 0.0
0.0 0.0 0.0
0.0 0.0 0.0
0.0 0.0 0.0
0.0 0.0 0.0
0.0 0.0 0.0
0.0 0.0 0.0
0.0 0.0 0.0
0.0 0.0 0.0
0.0 0.0 0.0
0.0 0.0 0.0
0.0 0.0 0.0
0.0 0.0 0.0
0.0 0.0 0.0
0.0 0.0 0.0
0.0 0.0 0.0
0.0 0.0 0.0
0.0 0.0 0.0
0.0 0.0 0.0
0.0 0.0 0.0
0.0 0.0 0.0
0.0 0.0 0.0
0.0 0.0 0.0
0.0 0.0 0.0
0.0 0.0 0.0
0.0 0.0 0.0
0.0 0.0 0.0
0.0 0.0 0.0
0.0 0.0 0.0
0.0 0.0 0.0
0.0 0.0 0.0
0.0 0.0 0.0
0.0 0.0 0.0
0.0 0.0 0.0
0.0 0.0 0.0
0.0 0.0 0.0
0.0 0.0 0.0
0.0 0.0 0.0
0.0 0.0 0.0
0.0 0.0 0.0
0.0 0.0 0.0
0.0 0.0 0.0
0.0 0.0 0.0
0.0 0.0 0.0
0.0 0.0 0.0
0.0 0.0 0.0
0.0 0.0 0.0
0.0 0.0 0.0
0.0 0.0 0.0
0.0 0.0 0.0
0.0 0.0 0.0
0.0 0.0 0.0
0.0 0.0 0.0
0.0 0.0 0.0
0.0 0.0 0.0
0.0 0.0 0.0
0.0 0.0 0.0
0.0 0.0 0.0
0.0 0.0 0.0
0.0 0.0 0.0
0.0 0.0 0.0
0.0 0.0 0.0
0.0 0.0 0.0
0.0 0.0 0.0
0.0 0.0 0.0
0.0 0.0 0.0
0.0 0.0 0.0
0.0 0.0 0.0
0.0 0.0 0.0
0.0 0.0 0.0
0.0 0.0 0.0
0.0 0.0 0.0
0.0 0.0 0.0
0.0 0.0 0.0
0.0 0.0 0.0
0.0 0.0 0.0
0.0 0.0 0.0
0.0 0.0 0.0
0.0 0.0 0.0
0.0 0.0 0.0
0.0 0.0 0.0
0.0 0.0 0.0
0.0 0.0 0.0
0.0 0.0 0.0
0.0 0.0 0.0
0.0 0.0 0.0
0.0 0.0 0.0
0.0 0.0 0.0
0.0 0.0 0.0
0.0 0.0 0.0
0.0 0.0 0.0
0.0 0.0 0.0
0.0 0.0 0.0
0.0 0.0 0.0
0.0 0.0 0.0
0.0 0.0 0.0
1.0 0.0 0.0
1.0 0.0 0.0
1.0 0.0 0.0
1.0 0.0 0.0
1.0 0.0 0.0
1.0 0.0 0.0
1.0 0.0 0.0
1.0 0.0 0.0
1.0 0.0 0.0
1.0 0.0 0.0
1.0 0.0 0.0
1.0 0.0 0.0
1.0 0.0 0.0
1.0 0.0 0.0
1.0 0.0 0.0
1.0 0.0 0.0
1.0 0.0 0.0
1.0 0.0 0.0
1.0 0.0 0.0
1.0 0.0 0.0
1.0 0.0 0.0
1.0 0.0 0.0
1.0 0.0 0.0
1.0 0.0 0.0
1.0 0.0 0.0
1.0 0.0 0.0
1.0 0.0 0.0
1.0 0.0 0.0
1.0 0.0 0.0
1.0 0.0 0.0
1.0 0.0 0.0
1.0 0.0 0.0
1.0 0.0 0.0
1.0 0.0 0.0
1.0 0.0 0.0
1.0 0.0 0.0
1.0 0.0 0.0
1.0 0.0 0.0
1.0 0.0 0.0
1.0 0.0 0.0
1.0 0.0 0.0
1.0 0.0 0.0
1.0 0.0 0.0
1.0 0.0 0.0
1.0 0.0 0.0
1.0 0.0 0.0
1.0 0.0 0.0
1.0 0.0 0.0
1.0 0.0 0.0
1.0 0.0 0.0
1.0 0.0 0.0
1.0 0.0 0.0
0.0 0.0 0.0
0.0 0.0 0.0
0.0 0.0 0.0
0.0 0.0 0.0
0.0 0.0 0.0
0.0 0.0 0.0
0.0 0.0 0.0
0.0 0.0 0.0
0.0 0.0 0.0
0.0 0.0 0.0
0.0 0.0 0.0
0.0 0.0 0.0
0.0 0.0 0.0
0.0 0.0 0.0
0.0 0.0 0.0
0.0 0.0 0.0
0.0 0.0 0.0
0.0 0.0 0.0
0.0 0.0 0.0
0.0 0.0 0.0
0.0 0.0 0.0
0.0 0.0 0.0
0.0 0.0 0.0
0.0 0.0 0.0
0.0 0.0 0.0
0.0 0.0 0.0
0.0 0.0 0.0
0.0 0.0 0.0
0.0 0.0 0.0
0.0 0.0 0.0
0.0 0.0 0.0
0.0 0.0 0.0
0.0 0.0 0.0
0.0 0.0 0.0
0.0 0.0 0.0
0.0 0.0 0.0
0.0 0.0 0.0
0.0 0.0 0.0
0.0 0.0 0.0
0.0 0.0 0.0
0.0 0.0 0.0
0.0 0.0 0.0
0.0 0.0 0.0
0.0 0.0 0.0
0.0 0.0 0.0
0.0 0.0 0.0
0.0 0.0 0.0
0.0 0.0 0.0
0.0 0.0 0.0
0.0 0.0 0.0
0.0 0.0 0.0
0.0 0.0 0.0
-0.0662646305273 0.00346999410205 0.0
-0.128113668496 -0.0598108164338 0.0
-0.102088450244 0.0741824659049 0.0
-0.0296313848443 -0.0177393301719 0.0
-0.027497613994 0.0181392171166 0.0
-0.116770130019 0.0150522079215 0.0
-0.0374356108808 0.0525322751264 0.0
-0.0456057916258 -0.0554476317602 0.0
-0.033215051291 0.000541443931598 0.0
-0.165833704665 -0.153139443417 0.0
-0.118726934031 0.16206510975 0.0
-0.0122577270623 -0.0112500562993 0.0
-0.0119563178159 0.010662193462 0.0
-0.100055421734 -0.00868846450549 0.0
-0.0725234329897 0.0371682077164 0.0
-0.0499227014524 -0.0219916997227 0.0
-0.0440630205859 0.00925992667566 0.0
-0.0568707901867 -0.00759705203246 0.0
-0.0456934638936 0.0971522567937 0.0
-0.0176627000299 -0.0347449354476 0.0
-0.0252735370659 0.00501491256442 0.0
-0.0606222277328 -0.114068223217 0.0
-0.0753556669477 0.0438942489922 0.0
-0.0252310770541 -0.00477385878626 0.0
-0.015439669274 0.0324992787532 0.0
-0.0832351117767 -0.0436358679398 0.0
-0.103181941811 0.0239584458733 0.0
-0.0465857255401 0.0281754158129 0.0
-0.0398747579739 -0.00728026539957 0.0
0.0668535795824 0.00532168262583 0.0
-0.0185128713 0.0644022491232 0.0
-0.0163019228471 -0.0525078079864 0.0
-0.025322024808 0.00100150759709 0.0
0.0517761187303 -0.0218164592767 0.0
-0.0515514384867 0.141584286806 0.0
-0.00830943021721 -0.0204259641853 0.0
-0.0169956800697 0.00464119762721 0.0
-0.0963784001511 -0.199293635631 0.0
-0.0173167604048 -0.00442360393708 0.0
0.00340636431721 0.0708082103618 0.0
-0.00743626588553 0.0188972582975 0.0
-0.127649291479 -0.0131864845933 0.0
-0.0642446217578 0.0649164041049 0.0
-0.0339185522793 -0.0332404050035 0.0
-0.0328649860627 0.00837191766786 0.0
-0.0723515591378 -0.0181033837449 0.0
-0.0516612904068 -0.002334703927 0.0
-0.00423582283589 -0.00412998701995 0.0
-0.00407182063427 0.00397880956331 0.0
-0.0645898286161 -0.295626347523 0.0
-0.0930043091651 0.238314104857 0.0
-0.11869220097 0.0457681269792 0.0
-0.0306948367391 0.0306077954044 0.0
-0.0211075216347 -0.0769250840353 0.0
0.143200999452 0.0119354857649 0.0
-0.0235494069965 -0.00104098915259 0.0
-0.0103100873945 0.0412122425536 0.0
-0.15244666122 -0.0600138450353 0.0
-0.0950443074497 0.117882098346 0.0
-0.0189454112031 -0.0194841198641 0.0
-0.0205576352223 0.0118515354257 0.0
-0.135599298502 -0.124026722222 0.0
-0.122778876208 0.087959964974 0.0
-0.0229330908215 -0.0108680196376 0.0
-0.0183018676727 0.0210637162788 0.0
-0.082132766539 0.00859543751844 0.0
-0.0619370556235 0.0208750836466 0.0
-0.0924735148122 -0.0768700746748 0.0
-0.0319552742841 -0.00880299659778 0.0
-0.0918974372386 0.0473024263557 0.0
-0.0580565209696 -0.0375606965308 0.0
-0.0379494235795 0.0187461872438 0.0
-0.0397933004185 0.0014121084836 0.0
0.129447925773 -0.0615793342574 0.0
-0.0678739984256 0.198836770713 0.0
-0.00430831182463 -0.0104943490853 0.0
-0.00934372423343 0.00356047149761 0.0
-0.00968852386793 -0.00377520764061 0.0
-0.137492922273 -0.304479608827 0.0
-0.00438859219491 0.00986813445982 0.0
0.0464158505381 0.114825501544 0.0
-0.104825726293 -0.0347867985248 0.0
-0.113078987802 0.0068557601377 0.0
-0.0538717393626 0.0429843250541 0.0
-0.0405325251883 -0.0172688174716 0.0
0.275958802162 -0.000977946079222 0.0
-0.0152985120604 0.0753842199634 0.0
-0.00695656673879 -0.0326763214608 0.0
-0.0195999915331 0.00138007269862 0.0
-0.0277443221532 -0.114371758208 0.0
-0.017401807898 -0.00180018797559 0.0
0.231394226191 0.0250163937586 0.0
-0.0049785290811 0.0234817535148 0.0
-0.0452433927354 -0.0804844960034 0.0
-0.093854195232 0.0282472383767 0.0
-0.0278831340668 -0.00245840562107 0.0
-0.0230012697772 0.0442074599829 0.0
-0.10629502282 0.00253130034849 0.0
-0.0409308105913 0.0705651693588 0.0
-0.0277754412308 -0.0456764725734 0.0
-0.0297397936387 0.0034730645511 0.0
-0.0548662970504 0.00991662158578 0.0
-0.0258208840023 -0.0279101227416 0.0
-0.0266668666914 0.0100459036915 0.0
-0.139709658918 -0.0290421406094 0.0
-0.0727092117032 0.0894386344814 0.0
-0.060980039926 -0.0113054863157 0.0
0.312623650617 -0.00250247831735 0.0
-0.0194112927877 0.0970228138065 0.0
-0.00482272037671 -0.0226557296382 0.0
-0.0162909495564 0.00186992270448 0.0
-0.0664853547428 -0.0612177803295 0.0
-0.0343654230388 -0.00412212533206 0.0
-0.0837475074281 0.0247489074302 0.0
-0.113922473435 0.0273266338531 0.0
-0.0383457304609 0.0381535108705 0.0
-0.0855197594034 -0.0234398380721 0.0
-0.049114001255 -0.0112877852951 0.0
-0.0472885686719 0.0173648136851 0.0
-0.0847305812051 -0.00837149249657 0.0
-0.0752095038132 0.0151413891549 0.0
0.349481605893 0.00106989120586 0.0
-0.00675190516325 0.0432830464399 0.0
-0.00794000888387 -0.0500218193903 0.0
-0.0194689745105 -6.8386247855e-05 0.0
-0.0685062559705 0.0163656746863 0.0
-0.0240961275546 0.0555320131008 0.0
-0.0319490996299 -0.0647541858396 0.0
-0.0291139527077 0.000186771487356 0.0
-0.0794757569886 -0.0230965138098 0.0
-0.0635217360345 0.118978767885 0.0
-0.0153211864818 -0.0260205493005 0.0
-0.0222247205617 0.00705890434878 0.0
-0.161375703835 -0.174632631734 0.0
-0.115254015186 0.1136125922 0.0
-0.0173897829851 -0.00930560718314 0.0
-0.0125558666699 0.0165478244801 0.0
-0.118814994226 0.0663861959505 0.0
-0.0250410978209 0.0242443068156 0.0
-0.0324032490239 0.013829592797 0.0
-0.0119470128053 -0.0747341873382 0.0
-0.0167971925769 -0.000857325733151 0.0
0.381162108401 0.00707046615709 0.0
-0.00399879864071 0.0263611903988 0.0
-0.0842352926475 0.0644905558534 0.0
-0.0455042283368 -0.0410562438782 0.0
-0.0382284558436 0.00686493119433 0.0
-0.00120077102379 -0.00112473880091 0.0
-0.00107445248181 0.00113891555386 0.0
0.025731515477 -0.323378693677 0.0
-0.0610695187921 0.272835883559 0.0
0.41582514359 0.00133415481711 0.0
-0.00685386714962 0.0516365477958 0.0
-0.00504861071781 -0.0354085238767 0.0
-0.0175975509424 0.000436598999731 0.0
0.400599800661 -0.0049376762683 0.0
-0.0225187860019 0.130625315696 0.0
-0.00287436690351 -0.0122503236031 0.0
-0.0101496292512 0.00169762974562 0.0
-0.0515346786463 -0.194059993145 0.0
-0.0104650841567 -0.00166597878661 0.0
0.303117527786 0.0434456351464 0.0
-0.00245288272242 0.0114236695706 0.0
-0.110341438662 -0.0677507196736 0.0
-0.0924121259497 0.1535747434 0.0
-0.0121163913262 -0.0169274520851 0.0
-0.0162600157847 0.00849226292241 0.0
-0.0920521093185 -0.146764518625 0.0
-0.0761940811054 0.066492188017 0.0
-0.0221195928606 -0.00639863016125 0.0
-0.0131117963399 0.0251117190243 0.0
-0.123780213563 0.00226198767726 0.0
-0.0526097883676 0.0553143389942 0.0
-0.0345288560632 -0.0231681088079 0.0
-0.0989251543066 0.00591476242367 0.0
-0.0600063747042 0.0325172117558 0.0
-0.125382589079 -0.0332132393285 0.0
-0.101856213787 -0.0565696973841 0.0
-0.0346786812178 -0.0137601983298 0.0
-0.116092549338 -0.00722528070273 0.0
-0.0651099945743 0.0499123271533 0.0
-0.0428024289636 -0.025162171422 0.0
-0.0715630813731 -0.0311820659467 0.0
-0.0451962286978 -0.0030476355136 0.0
0.340852224281 -0.0773301895901 0.0
-0.0562925898977 0.221901093297 0.0
-0.00172617799251 -0.00484023949856 0.0
-0.0045105710039 0.0015460222048 0.0
-0.00460184865354 -0.00170822006058 0.0
-0.106075639252 -0.379876435185 0.0
-0.00176586034683 0.00452767893099 0.0
0.154332670533 0.111726719383 0.0
-0.106679869368 0.0543818687642 0.0
-0.0375493468262 0.0261334377665 0.0
-0.0350492323632 0.00379253189607 0.0
0.00884905109178 0.00146984498628 0.0
-0.02778845344 0.079527877168 0.0
-0.0162609815005 -0.0433038189485 0.0
-0.0253274192715 0.0024472790787 0.0
-0.14818907574 -0.0826182073207 0.0
-0.109999816559 0.095033768116 0.0
-0.0238844436078 -0.0160837606669 0.0
-0.0221763556534 0.0166395402632 0.0
-0.11806599486 -0.0856703747677 0.0
-0.0282038886072 -0.0122651218423 0.0
-0.120905172881 -0.0102760678377 0.0
-0.0555889322379 0.0813872317445 0.0
-0.026221792968 -0.0358955212985 0.0
-0.0289065286575 0.00650385305066 0.0
-0.0254897414387 -0.126708743275 0.0
-0.0120380272389 -0.00119292789616 0.0
0.401332323223 0.0170082568121 0.0
-0.00228859539888 0.0146976742042 0.0
-0.0946996914584 -0.182704365623 0.0
-0.113228125126 0.209043935891 0.0
-0.00784881226157 -0.0088047628619 0.0
-0.00869003809815 0.00701239472859 0.0
-0.115195643588 0.0439202147098 0.0
-0.0240802143584 0.0352363315657 0.0
-0.0611357631111 -0.0235953038406 0.0
-0.0450850667973 0.00350902291288 0.0
-0.108045686747 0.0375512604364 0.0
-0.162535555273 -0.106861712835 0.0
-0.114322281124 0.125361339664 0.0
-0.0172884750369 -0.0142273220779 0.0
-0.016735689263 0.0137669989875 0.0
-0.0319623705177 0.0232337259776 0.0
-0.0338006440414 -0.0984684877855 0.0
0.0583470931981 0.024308630746 0.0
-0.0236707937569 -0.00226068962395 0.0
-0.0106707441868 0.0357644754222 0.0
-0.0657916146314 -0.0917331181072 0.0
-0.0281124044674 -0.0053182120845 0.0
-0.0601411262572 0.0016317499622 0.0
-0.0659530710341 -0.00720620835119 0.0
-0.0382269879931 0.0120382136665 0.0
-0.0963107143802 -0.109753350465 0.0
-0.0264791896883 -0.00816918699915 0.0
-0.117132506998 0.0634454272105 0.0
-0.0190903784891 0.0272528679808 0.0
-0.069796358456 0.0263445135628 0.0
-0.00533871623702 -0.0476942869018 0.0
-0.0142405823687 -0.000238034123714 0.0
0.527679486322 0.00362549662575 0.0
-0.00275005582944 0.0264585815915 0.0
-0.0774114510946 0.0490028856469 0.0
-0.0480884223439 -0.031823417804 0.0
-0.168729702251 -0.233620474748 0.0
-0.0910239420537 0.13421732948 0.0
-0.013255976118 -0.00708687856957 0.0
-0.00850780855607 0.0129354509695 0.0
0.0854720868968 0.0160574878588 0.0
-0.0146615704977 0.0522741764887 0.0
-0.0193276162799 -0.0642177418172 0.0
-0.0248635392588 9.58052019319e-06 0.0
-0.0617807197805 0.0115215122008 0.0
-0.117167454127 0.0317155802252 0.0
-0.0318084429685 0.039720611154 0.0
0.0357503450997 -0.0115875327349 0.0
-0.0400540832215 0.11266061089 0.0
-0.0109043357689 -0.0281160287561 0.0
-0.0207876716114 0.00419314096356 0.0
-0.0768391288016 0.00192486806262 0.0
0.515591395742 0.00251134656506 0.0
-0.0115137714371 0.0896467212113 0.0
-0.00217063057738 -0.0139274111615 0.0
-0.0107220592681 0.00114253982253 0.0
-0.0529906097909 0.0229325982049 0.0
0.513005365928 -0.00706164007493 0.0
-0.00758912555746 0.0619211716444 0.0
-0.00218367659586 -0.0199869504162 0.0
-0.0126889489191 0.00050928316546 0.0
-0.0671969540529 -0.0456514753231 0.0
-0.0366759196157 -0.00337160075048 0.0
-0.0894342955492 0.0342461848 0.0
-0.09285109572 0.0186395543186 0.0
-0.0835669313539 -0.0568935646765 0.0
-0.0356219797876 -0.00805402545814 0.0
-0.0647038334852 -0.0880862677411 0.0
-0.0924935843293 0.184273123397 0.0
-0.00814258171759 -0.0131049610266 0.0
-0.0121593131567 0.00653038071285 0.0
-0.142811348855 -0.0489444890409 0.0
-0.0915415039479 0.0898964815848 0.0
-0.0255287448782 -0.0218241013917 0.0
-0.024435129989 0.0138210145607 0.0
-0.159754108736 -0.294232800066 0.0
-0.0082001558679 -0.00547071160606 0.0
-0.0841971339133 0.175832884622 0.0
-0.00574784114755 0.00794298048877 0.0
-0.11186146166 -0.0195983514633 0.0
-0.0551582585431 -0.0498020874465 0.0
-0.0354865133743 -0.000312830412505 0.0
-0.0364748981352 -0.0419192837364 0.0
-0.0417646910319 0.0222224885426 0.0
-0.0524512374827 -0.0667115991717 0.0
-0.0319816110701 -0.00195661409607 0.0
-0.0797412398735 0.0385832039867 0.0
-0.0869781757184 -0.00191846689754 0.0
-0.11543588948 0.0153107291365 0.0
-0.110298417845 0.0191331304216 0.0
-0.0429992334174 0.0453895379041 0.0
-0.0465603281627 0.0357835522723 0.0
-0.0890031990805 -0.0358835335335 0.0
-0.0443426286371 -0.0181679504145 0.0
-0.0414718311887 -0.0124579399326 0.0
0.538499017777 -0.0176030764669 0.0
-0.0220758694527 0.138842715477 0.0
-0.00131082742444 -0.00686078313223 0.0
-0.00612114321409 0.0009941154428 0.0
-0.00634119415742 -0.00084716676704 0.0
-0.0448974930006 -0.224450919674 0.0
-0.00104611034477 0.00657883988442 0.0
0.40976356058 0.0432289305415 0.0
-0.121723232924 -0.00339508174314 0.0
-0.0498258579534 0.0681186791306 0.0
-0.00768868176676 -0.068789946044 0.0
-0.0117642903689 -0.000601271095567 0.0
0.549943692949 0.00365002729119 0.0
-0.00179182396137 0.0168387874233 0.0
-0.0519686733988 0.00902692131615 0.0
-0.0290844555068 0.0657194058099 0.0
-0.027665162681 -0.0547637690325 0.0
-0.0285314687779 0.00148803249625 0.0
0.628739785517 0.00260406620662 0.0
-0.00379332540014 0.0411623008698 0.0
-0.00217750903552 -0.0203005414589 0.0
-0.0113202485691 0.000411093585278 0.0
-0.0622876859304 -0.156310785237 0.0
-0.0214920978263 -0.00386118673489 0.0
-0.0194331338852 0.0453055000792 0.0
-0.0112312981766 0.0288721149235 0.0
-0.0159031724365 0.0210073421193 0.0
-0.0305317249798 -0.0779708466422 0.0
-0.0173247653054 0.0470573555692 0.0
-0.0268947442699 -0.00118281086777 0.0
-0.0486737820585 -0.0965790942487 0.0
-0.0597822761565 0.0338546161416 0.0
-0.0267604212243 -0.00317659750988 0.0
-0.0174662131238 0.0389951776101 0.0
-0.0765939704721 0.0749629087937 0.0
-0.0305601949135 0.0109227546068 0.0
-0.104977243687 -0.241635366948 0.0
-0.0129838298391 -0.00389731091059 0.0
0.0369671701046 0.0849440458621 0.0
-0.00530250955451 0.0140385744883 0.0
-0.0407961168614 0.00462930299166 0.0
0.0930490501744 -0.044072626772 0.0
-0.0617344304874 0.174120220453 0.0
-0.00598108826413 -0.0142284230781 0.0
-0.012631902408 0.00423458698393 0.0
-0.0556749559643 0.0171757689446 0.0
-0.0518127829792 -0.0142588395863 0.0
-0.0413835413155 0.0159062322334 0.0
0.0724249982911 -0.000899611758739 0.0
-0.0279982725072 0.0915327441327 0.0
-0.0114217885701 -0.0350280683269 0.0
-0.0225499380389 0.00288179663797 0.0
-0.000953131773501 -0.00188788807046 0.0
-0.00180321034621 0.000884760694829 0.0
0.326498972625 -0.143837608074 0.0
-0.00197156962037 -0.00080590454757 0.0
-0.0696065363735 0.270991354941 0.0
-0.0732665293069 -0.413827135316 0.0
-0.000794260848447 0.00189131977535 0.0
0.216747560999 0.113229100771 0.0
-0.0313122603515 0.0050252853616 0.0
-0.0200406226192 -0.0294446051235 0.0
-0.0244312155618 0.0074232524572 0.0
-0.12058541793 0.00594041440335 0.0
-0.0442536630856 0.0615618324991 0.0
-0.107842303318 -0.000591700499962 0.0
-0.0635644007823 0.0398623789663 0.0
-0.0581427781408 -0.127317899716 0.0
-0.0189894416116 -0.00337221286234 0.0
0.0684890669202 0.0410993218076 0.0
-0.00735386454309 0.0236590405021 0.0
-0.114079201309 -0.0211796705512 0.0
-0.0633711274006 0.101570816186 0.0
-0.0354306059244 -0.0181850189288 0.0
-0.0343780573354 0.0182984098927 0.0
-0.0489014440785 0.0116547233764 0.0
0.17147618808 3.14532669503e-05 0.0
-0.0164497920872 0.0697726721349 0.0
-0.0105653632395 -0.0419662477517 0.0
-0.0223676548844 0.0012059966871 0.0
-0.108470332712 0.0211241733085 0.0
-0.0305849565996 0.0496715686447 0.0
-0.0556165129693 -0.00816379581462 0.0
-0.119384052382 -0.0440109859749 0.0
-0.0316192378706 0.00254829784991 0.0
-0.034440611215 -0.0523379915845 0.0
-0.0911343824154 -0.0146118326045 0.0
-0.113786403382 -0.0206871268025 0.0
-0.051054460374 0.00344073365413 0.0
-0.129171656304 -0.022849668784 0.0
-0.0315315425505 -0.0289811602957 0.0
-0.0964610604746 0.0626575344127 0.0
-0.101941526132 -0.0260034088075 0.0
-0.0859797154279 -0.00177451029059 0.0
-0.0438217928594 0.0824624442225 0.0
-0.0222436667538 -0.0414758885889 0.0
-0.0280174200578 0.00442255223253 0.0
-0.0703109781701 0.0576094749672 0.0
-0.0447374991449 -0.0321718902062 0.0
-0.121159363835 0.0530346620743 0.0
-0.0252269331071 0.0296068545547 0.0
-0.0753215024952 -0.0765083747716 0.0
-0.0322677173114 -0.00592345654537 0.0
0.654053686886 0.00842782899437 0.0
-0.00159879633006 0.02942085506 0.0
-0.00251584227165 -0.0258222113984 0.0
-0.0113792025212 0.000301488545865 0.0
-0.0211206574929 -0.0248822333222 0.0
-0.024419843603 0.0101959113059 0.0
-0.0808537482175 0.0164055348019 0.0
-0.13981520196 -0.0378750424338 0.0
-0.080402503592 0.10674721564 0.0
-0.0831835833428 -0.0172975818833 0.0
-0.0599655645407 -0.00480268005603 0.0
-0.0636307297786 -0.0163371142035 0.0
-0.0356195168312 0.00929361220496 0.0
-0.040280847204 0.0316787257339 0.0
-0.0796710822688 -0.0318545234557 0.0
-0.0488145373416 -0.00590403731542 0.0
-0.156663553952 -0.110936503431 0.0
-0.120287546872 0.103023521404 0.0
-0.0204570782338 -0.0133617547871 0.0
-0.0188460890858 0.0174704096235 0.0
-0.128484521538 -0.151635545459 0.0
-0.109606273613 0.0872227259235 0.0
-0.0210592581465 -0.00847355057189 0.0
-0.0137980415199 0.0212948199821 0.0
-0.0383140711504 0.00352017213559 0.0
-0.0659614477779 -0.0341404553071 0.0
-0.0714797290016 0.137291075595 0.0
-0.0125700364068 -0.0214645841112 0.0
-0.0192252656111 0.007110044393 0.0
0.136908973406 -0.0108811146879 0.0
-0.0366872415334 0.121085059306 0.0
-0.00776091827489 -0.0234197049701 0.0
-0.0183761985024 0.00346527513637 0.0
-0.122102776472 0.0233746059963 0.0
-0.037290659837 0.0442551635019 0.0
-0.0288386332035 0.014143098338 0.0
-0.0953764721692 -0.0483917949743 0.0
-0.0390261901617 -0.0109899915036 0.0
-0.0993540638404 0.0141342850405 0.0
-0.0525556162665 0.0314819237677 0.0
0.623992904734 -0.00073892731061 0.0
-0.00545494638982 0.0630537838963 0.0
-0.00120208696913 -0.0130722654186 0.0
-0.00941442578882 0.000496451284605 0.0
-0.0887027305585 0.0788799752554 0.0
-0.0761136775089 0.0305524485457 0.0
-0.00712325594645 -0.0653378154565 0.0
-0.00892274945238 -0.000252213834602 0.0
0.63235588499 0.0105785342533 0.0
-0.000751099531238 0.0117374824896 0.0
0.240390239791 -0.00186225828339 0.0
-0.0193470585925 0.0879833237339 0.0
-0.0067374558825 -0.02883614184 0.0
-0.0188222453735 0.00192110193171 0.0
-0.111814655533 0.0287753076899 0.0
-0.115680101598 0.0352245111645 0.0
-0.11385609862 0.0779882887044 0.0