# vtk DataFile Version 2.0
2D Simulation Python
ASCII
DATASET UNSTRUCTURED_GRID
FIELD FieldData 1
NODES 1 2 int
3798 7382

POINTS 3798 double
0.0 0.0 0.0
1.0 0.0 0.0
1.0 1.0 0.0
0.0 1.0 0.0
0.01886792452826637 0.0 0.0
0.03773584905653053 0.0 0.0
0.05660377358479097 0.0 0.0
0.07547169811305962 0.0 0.0
0.09433962264133271 0.0 0.0
0.1132075471696058 0.0 0.0
0.1320754716978688 0.0 0.0
0.1509433962261159 0.0 0.0
0.1698113207543628 0.0 0.0
0.1886792452826097 0.0 0.0
0.2075471698108566 0.0 0.0
0.2264150943391035 0.0 0.0
0.2452830188673504 0.0 0.0
0.2641509433955972 0.0 0.0
0.2830188679238441 0.0 0.0
0.301886792452091 0.0 0.0
0.3207547169803379 0.0 0.0
0.3396226415085848 0.0 0.0
0.3584905660368317 0.0 0.0
0.3773584905650785 0.0 0.0
0.3962264150933255 0.0 0.0
0.4150943396215723 0.0 0.0
0.4339622641498192 0.0 0.0
0.4528301886780661 0.0 0.0
0.4716981132063129 0.0 0.0
0.4905660377345599 0.0 0.0
0.5094339622628591 0.0 0.0
0.5283018867912108 0.0 0.0
0.5471698113195625 0.0 0.0
0.5660377358479143 0.0 0.0
0.5849056603762659 0.0 0.0
0.6037735849046176 0.0 0.0
0.6226415094329693 0.0 0.0
0.6415094339613208 0.0 0.0
0.6603773584896723 0.0 0.0
0.6792452830180238 0.0 0.0
0.6981132075463754 0.0 0.0
0.7169811320747269 0.0 0.0
0.7358490566030784 0.0 0.0
0.7547169811314299 0.0 0.0
0.7735849056597816 0.0 0.0
0.7924528301881331 0.0 0.0
0.8113207547164847 0.0 0.0
0.8301886792448361 0.0 0.0
0.8490566037731877 0.0 0.0
0.8679245283015392 0.0 0.0
0.8867924528298908 0.0 0.0
0.9056603773582425 0.0 0.0
0.9245283018865939 0.0 0.0
0.9433962264149454 0.0 0.0
0.962264150943297 0.0 0.0
0.9811320754716486 0.0 0.0
1.0 0.01886792452826637 0.0
1.0 0.03773584905653053 0.0
1.0 0.05660377358479097 0.0
1.0 0.07547169811305962 0.0
1.0 0.09433962264133271 0.0
1.0 0.1132075471696058 0.0
1.0 0.1320754716978688 0.0
1.0 0.1509433962261159 0.0
1.0 0.1698113207543628 0.0
1.0 0.1886792452826097 0.0
1.0 0.2075471698108566 0.0
1.0 0.2264150943391035 0.0
1.0 0.2452830188673504 0.0
1.0 0.2641509433955972 0.0
1.0 0.2830188679238441 0.0
1.0 0.301886792452091 0.0
1.0 0.3207547169803379 0.0
1.0 0.3396226415085848 0.0
1.0 0.3584905660368317 0.0
1.0 0.3773584905650785 0.0
1.0 0.3962264150933255 0.0
1.0 0.4150943396215723 0.0
1.0 0.4339622641498192 0.0
1.0 0.4528301886780661 0.0
1.0 0.4716981132063129 0.0
1.0 0.4905660377345599 0.0
1.0 0.5094339622628591 0.0
1.0 0.5283018867912108 0.0
1.0 0.5471698113195625 0.0
1.0 0.5660377358479143 0.0
1.0 0.5849056603762659 0.0
1.0 0.6037735849046176 0.0
1.0 0.6226415094329693 0.0
1.0 0.6415094339613208 0.0
1.0 0.6603773584896723 0.0
1.0 0.6792452830180238 0.0
1.0 0.6981132075463754 0.0
1.0 0.7169811320747269 0.0
1.0 0.7358490566030784 0.0
1.0 0.7547169811314299 0.0
1.0 0.7735849056597816 0.0
1.0 0.7924528301881331 0.0
1.0 0.8113207547164847 0.0
1.0 0.8301886792448361 0.0
1.0 0.8490566037731877 0.0
1.0 0.8679245283015392 0.0
1.0 0.8867924528298908 0.0
1.0 0.9056603773582425 0.0
1.0 0.9245283018865939 0.0
1.0 0.9433962264149454 0.0
1.0 0.962264150943297 0.0
1.0 0.9811320754716486 0.0
0.9811320754716195 1.0 0.0
0.9622641509432391 1.0 0.0
0.9433962264148587 1.0 0.0
0.9245283018864782 1.0 0.0
0.9056603773580978 1.0 0.0
0.8867924528297173 1.0 0.0
0.8679245283014174 1.0 0.0
0.8490566037732444 1.0 0.0
0.8301886792450734 1.0 0.0
0.8113207547169025 1.0 0.0
0.7924528301887315 1.0 0.0
0.7735849056605606 1.0 0.0
0.7547169811323896 1.0 0.0
0.7358490566042186 1.0 0.0
0.7169811320760476 1.0 0.0
0.6981132075478766 1.0 0.0
0.6792452830197057 1.0 0.0
0.6603773584915346 1.0 0.0
0.6415094339633636 1.0 0.0
0.6226415094351925 1.0 0.0
0.6037735849070215 1.0 0.0
0.5849056603788504 1.0 0.0
0.5660377358506794 1.0 0.0
0.5471698113225083 1.0 0.0
0.5283018867943372 1.0 0.0
0.5094339622661662 1.0 0.0
0.4905660377378905 1.0 0.0
0.4716981132095099 1.0 0.0
0.4528301886811295 1.0 0.0
0.4339622641527489 1.0 0.0
0.4150943396243684 1.0 0.0
0.3962264150959879 1.0 0.0
0.3773584905676074 1.0 0.0
0.358490566039227 1.0 0.0
0.3396226415108468 1.0 0.0
0.3207547169824663 1.0 0.0
0.3018867924540859 1.0 0.0
0.2830188679257056 1.0 0.0
0.2641509433973251 1.0 0.0
0.2452830188689448 1.0 0.0
0.2264150943405645 1.0 0.0
0.2075471698121841 1.0 0.0
0.1886792452838036 1.0 0.0
0.1698113207554234 1.0 0.0
0.150943396227043 1.0 0.0
0.1320754716986625 1.0 0.0
0.1132075471702823 1.0 0.0
0.09433962264190188 1.0 0.0
0.0754716981135215 1.0 0.0
0.05660377358514113 1.0 0.0
0.03773584905676075 1.0 0.0
0.01886792452838049 1.0 0.0
0.0 0.9811320754716195 0.0
0.0 0.9622641509432391 0.0
0.0 0.9433962264148587 0.0
0.0 0.9245283018864782 0.0
0.0 0.9056603773580978 0.0
0.0 0.8867924528297173 0.0
0.0 0.8679245283014174 0.0
0.0 0.8490566037732444 0.0
0.0 0.8301886792450734 0.0
0.0 0.8113207547169025 0.0
0.0 0.7924528301887315 0.0
0.0 0.7735849056605606 0.0
0.0 0.7547169811323896 0.0
0.0 0.7358490566042186 0.0
0.0 0.7169811320760476 0.0
0.0 0.6981132075478766 0.0
0.0 0.6792452830197057 0.0
0.0 0.6603773584915346 0.0
0.0 0.6415094339633636 0.0
0.0 0.6226415094351925 0.0
0.0 0.6037735849070215 0.0
0.0 0.5849056603788504 0.0
0.0 0.5660377358506794 0.0
0.0 0.5471698113225083 0.0
0.0 0.5283018867943372 0.0
0.0 0.5094339622661662 0.0
0.0 0.4905660377378905 0.0
0.0 0.4716981132095099 0.0
0.0 0.4528301886811295 0.0
0.0 0.4339622641527489 0.0
0.0 0.4150943396243684 0.0
0.0 0.3962264150959879 0.0
0.0 0.3773584905676074 0.0
0.0 0.358490566039227 0.0
0.0 0.3396226415108468 0.0
0.0 0.3207547169824663 0.0
0.0 0.3018867924540859 0.0
0.0 0.2830188679257056 0.0
0.0 0.2641509433973251 0.0
0.0 0.2452830188689448 0.0
0.0 0.2264150943405645 0.0
0.0 0.2075471698121841 0.0
0.0 0.1886792452838036 0.0
0.0 0.1698113207554234 0.0
0.0 0.150943396227043 0.0
0.0 0.1320754716986625 0.0
0.0 0.1132075471702823 0.0
0.0 0.09433962264190188 0.0
0.0 0.0754716981135215 0.0
0.0 0.05660377358514113 0.0
0.0 0.03773584905676075 0.0
0.0 0.01886792452838049 0.0
0.49961422419268997 0.4984293794066726 0.0
0.7093511500970902 0.706792936500378 0.0
0.29287482782244045 0.7110496278611782 0.0
0.7065208514432915 0.2921137893028175 0.0
0.2917146567058879 0.2951459957249887 0.0
0.5010883512796402 0.783530677658598 0.0
0.2164159732426224 0.5012876322837192 0.0
0.7820505253934122 0.4994927647991782 0.0
0.4969563419356505 0.21663804071479492 0.0
0.8269192007901067 0.8287013252031155 0.0
0.1712682973217082 0.8268730922835856 0.0
0.8299941553097447 0.17180608262880254 0.0
0.17180615988223974 0.17000622072452293 0.0
0.5640959313975822 0.6420224840910225 0.0
0.36076803388570655 0.5671667288006801 0.0
0.641160245161879 0.4320186669377829 0.0
0.4354935082651592 0.36378759861759746 0.0
0.6410454186381067 0.8479832937118897 0.0
0.1518368310809157 0.6410829539811169 0.0
0.8477907051244511 0.3598243790179788 0.0
0.35938579904680457 0.15130729784326102 0.0
0.8497305928919907 0.6399401683101269 0.0
0.3617952267412937 0.8474454291453152 0.0
0.6436051449793575 0.15189469658234833 0.0
0.15079737625026685 0.3588783576988489 0.0
0.6832039587940572 0.5823618751624478 0.0
0.4454396775914624 0.6627381531764 0.0
0.33424594078221964 0.4385872006022409 0.0
0.5773189844856303 0.3195812160927133 0.0
0.5368082180804761 0.8869865896668006 0.0
0.11301341973883329 0.5368082072162796 0.0
0.8863497125425446 0.46278650800142523 0.0
0.46231798559604276 0.1137357048419064 0.0
0.735504344602733 0.8878298811845817 0.0
0.11217246241749894 0.7355045289688809 0.0
0.8876386118329569 0.26464529586215935 0.0
0.26447675721717134 0.11218714573944835 0.0
0.8918893682153743 0.7430319146751548 0.0
0.7378676821853629 0.10938784471235846 0.0
0.2618554236513495 0.8907466135047526 0.0
0.10927139946373736 0.2618885660485004 0.0
0.6036356850091371 0.740958324467786 0.0
0.2594197395873493 0.6024781400358834 0.0
0.7471835282093033 0.3970113006814754 0.0
0.39635295506120277 0.25856270415268773 0.0
0.5973835830959042 0.5282120591728078 0.0
0.5269880475515504 0.40324375384926064 0.0
0.900344051349824 0.09737126935472232 0.0
0.09737116846728401 0.09965601878423913 0.0
0.9027736024298996 0.9004379740924425 0.0
0.09965486244215357 0.9026299600545967 0.0
0.3830054844266893 0.7484876862569074 0.0
0.25074672726321157 0.3828059459383084 0.0
0.9036934196956306 0.5634343341860331 0.0
0.436167023944368 0.903809418557912 0.0
0.5634650142808684 0.09627038765249357 0.0
0.09611428176536896 0.43622888244072316 0.0
0.7383691909253696 0.7977530090605311 0.0
0.20213608094646243 0.7381864461382426 0.0
0.7965379729869333 0.25833485688790847 0.0
0.25825176979143294 0.20343822649683996 0.0
0.8016496201203362 0.7232057683389532 0.0
0.27776554876540255 0.7985644202275013 0.0
0.7230025466734626 0.19888476423555862 0.0
0.20134253349952064 0.2778412830843111 0.0
0.48914355287031674 0.5909586444150075 0.0
0.4113298235007088 0.49483643887222295 0.0
0.7553604068177817 0.6323161440656005 0.0
0.6323326401346647 0.2446343261447706 0.0
0.3558016573651024 0.6535168196958461 0.0
0.6947272998992697 0.49553252027219197 0.0
0.34695271761644664 0.35520182412877976 0.0
0.49374473330545476 0.3082796821038452 0.0
0.8187154539118972 0.9148861354006228 0.0
0.08511383208187207 0.8187154148724425 0.0
0.9150328940734902 0.18133025458140606 0.0
0.18128457425270267 0.0851129709589244 0.0
0.8187403987114168 0.08420346742597412 0.0
0.9157746719419576 0.8186373542270347 0.0
0.08420340483892619 0.18125955209024192 0.0
0.18126035834340148 0.9157847355643594 0.0
0.6491759294498078 0.6582605894876106 0.0
0.518075563238964 0.700155561243168 0.0
0.2994944160935228 0.5182519107636043 0.0
0.6529572976260253 0.35254842454839763 0.0
0.6097401473872117 0.9217208439447089 0.0
0.07827850601264716 0.6097398708442259 0.0
0.9217267277120186 0.3902548071573767 0.0
0.39024121399465406 0.07825838690395835 0.0
0.9257398577009572 0.6657069734842804 0.0
0.6657516430505073 0.07518432263878908 0.0
0.3341866530930919 0.9246109018771522 0.0
0.07542270790545244 0.3342243925275289 0.0
0.8225798016625723 0.5644120390192462 0.0
0.43501894509773303 0.8272239480204406 0.0
0.5644015723185061 0.17743228884395235 0.0
0.1728552698143025 0.4351788286843611 0.0
0.5668992511560398 0.812632221934239 0.0
[...]
POINT_DATA 3798
VECTORS vector double
0.0 0.0 0.0
0.0 0.0 0.0
0.0 0.0 0.0
0.0 0.0 0.0
0.0 0.0 0.0
0.0 0.0 0.0
0.0 0.0 0.0
0.0 0.0 0.0
0.0 0.0 0.0
0.0 0.0 0.0
0.0 0.0 0.0
0.0 0.0 0.0
0.0 0.0 0.0
0.0 0.0 0.0
0.0 0.0 0.0
0.0 0.0 0.0
0.0 0.0 0.0
0.0 0.0 0.0
0.0 0.0 0.0
0.0 0.0 0.0
0.0 0.0 0.0
0.0 0.0 0.0
0.0 0.0 0.0
0.0 0.0 0.0
0.0 0.0 0.0
0.0 0.0 0.0
0.0 0.0 0.0
0.0 0.0 0.0
0.0 0.0 0.0
0.0 0.0 0.0
0.0 0.0 0.0
0.0 0.0 0.0
0.0 0.0 0.0
0.0 0.0 0.0
0.0 0.0 0.0
0.0 0.0 0.0
0.0 0.0 0.0
0.0 0.0 0.0
0.0 0.0 0.0
0.0 0.0 0.0
0.0 0.0 0.0
0.0 0.0 0.0
0.0 0.0 0.0
0.0 0.0 0.0
0.0 0.0 0.0
0.0 0.0 0.0
0.0 0.0 0.0
0.0 0.0 0.0
0.0 0.0 0.0
0.0 0.0 0.0
0.0 0.0 0.0
0.0 0.0 0.0
0.0 0.0 0.0
0.0 0.0 0.0
0.0 0.0 0.0
0.0 0.0 0.0
0.0 0.0 0.0
0.0 0.0 0.0
0.0 0.0 0.0
0.0 0.0 0.0
0.0 0.0 0.0
0.0 0.0 0.0
0.0 0.0 0.0
0.0 0.0 0.0
0.0 0.0 0.0
0.0 0.0 0.0
0.0 0.0 0.0
0.0 0.0 0.0
0.0 0.0 0.0
0.0 0.0 0.0
0.0 0.0 0.0
0.0 0.0 0.0
0.0 0.0 0.0
0.0 0.0 0.0
0.0 0.0 0.0
0.0 0.0 0.0
0.0 0.0 0.0
0.0 0.0 0.0
0.0 0.0 0.0
0.0 0.0 0.0
0.0 0.0 0.0
0.0 0.0 0.0
0.0 0.0 0.0
0.0 0.0 0.0
0.0 0.0 0.0
0.0 0.0 0.0
0.0 0.0 0.0
0.0 0.0 0.0
0.0 0.0 0.0
0.0 0.0 0.0
0.0 0.0 0.0
0.0 0.0 0.0
0.0 0.0 0.0
0.0 0.0 0.0
0.0 0.0 0.0
0.0 0.0 0.0
0.0 0.0 0.0
0.0 0.0 0.0
0.0 0.0 0.0
0.0 0.0 0.0
0.0 0.0 0.0
0.0 0.0 0.0
0.0 0.0 0.0
0.0 0.0 0.0
0.0 0.0 0.0
0.0 0.0 0.0
0.0 0.0 0.0
0.0 0.0 0.0
1.0 0.0 0.0
1.0 0.0 0.0
1.0 0.0 0.0
1.0 0.0 0.0
1.0 0.0 0.0
1.0 0.0 0.0
1.0 0.0 0.0
1.0 0.0 0.0
1.0 0.0 0.0
1.0 0.0 0.0
1.0 0.0 0.0
1.0 0.0 0.0
1.0 0.0 0.0
1.0 0.0 0.0
1.0 0.0 0.0
1.0 0.0 0.0
1.0 0.0 0.0
1.0 0.0 0.0
1.0 0.0 0.0
1.0 0.0 0.0
1.0 0.0 0.0
1.0 0.0 0.0
1.0 0.0 0.0
1.0 0.0 0.0
1.0 0.0 0.0
1.0 0.0 0.0
1.0 0.0 0.0
1.0 0.0 0.0
1.0 0.0 0.0
1.0 0.0 0.0
1.0 0.0 0.0
1.0 0.0 0.0
1.0 0.0 0.0
1.0 0.0 0.0
1.0 0.0 0.0
1.0 0.0 0.0
1.0 0.0 0.0
1.0 0.0 0.0
1.0 0.0 0.0
1.0 0.0 0.0
1.0 0.0 0.0
1.0 0.0 0.0
1.0 0.0 0.0
1.0 0.0 0.0
1.0 0.0 0.0
1.0 0.0 0.0
1.0 0.0 0.0
1.0 0.0 0.0
1.0 0.0 0.0
1.0 0.0 0.0
1.0 0.0 0.0
1.0 0.0 0.0
0.0 0.0 0.0
0.0 0.0 0.0
0.0 0.0 0.0
0.0 0.0 0.0
0.0 0.0 0.0
0.0 0.0 0.0
0.0 0.0 0.0
0.0 0.0 0.0
0.0 0.0 0.0
0.0 0.0 0.0
0.0 0.0 0.0
0.0 0.0 0.0
0.0 0.0 0.0
0.0 0.0 0.0
0.0 0.0 0.0
0.0 0.0 0.0
0.0 0.0 0.0
0.0 0.0 0.0
0.0 0.0 0.0
0.0 0.0 0.0
0.0 0.0 0.0
0.0 0.0 0.0
0.0 0.0 0.0
0.0 0.0 0.0
0.0 0.0 0.0
0.0 0.0 0.0
0.0 0.0 0.0
0.0 0.0 0.0
0.0 0.0 0.0
0.0 0.0 0.0
0.0 0.0 0.0
0.0 0.0 0.0
0.0 0.0 0.0
0.0 0.0 0.0
0.0 0.0 0.0
0.0 0.0 0.0
0.0 0.0 0.0
0.0 0.0 0.0
0.0 0.0 0.0
0.0 0.0 0.0
0.0 0.0 0.0
0.0 0.0 0.0
0.0 0.0 0.0
0.0 0.0 0.0
0.0 0.0 0.0
0.0 0.0 0.0
0.0 0.0 0.0
0.0 0.0 0.0
0.0 0.0 0.0
0.0 0.0 0.0
0.0 0.0 0.0
0.0 0.0 0.0
-0.209931747749 0.0523720922682 0.0
-0.119116346733 -0.162233657399 0.0
-0.0642151767323 0.224318420187 0.0
-0.107833869299 -0.0710934690426 0.0
-0.090272709626 0.0629334265082 0.0
0.064570973885 0.105597115004 0.0
-0.0769556219259 0.163002534503 0.0
-0.183074526763 -0.225671180645 0.0
-0.108745875285 0.000377513856359 0.0
0.0275655052444 -0.307790918248 0.0
-0.0631663525261 0.242879803448 0.0
-0.0205628964554 -0.020769989928 0.0
-0.0258674612605 0.0224608513608 0.0
-0.153559407775 0.0373355755346 0.0
-0.135522572276 0.169756829867 0.0
-0.214789238491 -0.0917931915488 0.0
-0.162242451044 0.0472219162019 0.0
0.256233927662 -0.00725700146194 0.0
-0.0439429031357 0.210000622095 0.0
-0.0578494880254 -0.0961862464018 0.0
-0.0645479083778 0.0153153132199 0.0
-0.16398118823 -0.38357996741 0.0
0.110322841041 0.12972030758 0.0
-0.0626618135642 -0.0179356570101 0.0
-0.0399453760765 0.0843115127074 0.0
-0.23565892966 -0.151929635685 0.0
-0.103266505693 0.150615561651 0.0
-0.137192614169 0.118553714572 0.0
-0.160055704124 -0.0317025073784 0.0
0.373708112971 0.0366897899142 0.0
-0.0277573106512 0.144320830429 0.0
-0.0586429998693 -0.149460667291 0.0
-0.060341121238 0.00249209282892 0.0
0.361712530168 -0.0681190928732 0.0
-0.0362347688426 0.221517355718 0.0
-0.0174559306167 -0.0339104241959 0.0
-0.0337837268637 0.0111660091816 0.0
-0.119270879889 -0.486084257714 0.0
-0.0279082487479 -0.0115087936759 0.0
0.114845987363 0.127333874053 0.0
-0.0177685285102 0.0384481740001 0.0
-0.0154629969766 0.0154985639899 0.0
-0.0872600821287 0.209459859997 0.0
-0.145667755085 -0.137153411113 0.0
-0.113063157319 0.0323182257088 0.0
-0.236349113226 -0.0402504009057 0.0
-0.200669300064 0.00331448505774 0.0
-0.00234720887452 -0.00273192458641 0.0
-0.00503773513776 0.00497660115176 0.0
0.0561224866879 -0.371638089072 0.0
-0.0784163323924 0.252863240267 0.0
-0.0234515948101 0.181526971752 0.0
-0.0885090225209 0.104436019336 0.0
-0.072729192499 -0.234022265801 0.0
0.376446166908 0.0526124781528 0.0
-0.0501137269021 -0.00440202438059 0.0
-0.0213649151242 0.0932327850295 0.0
0.0557548662272 -0.154732469914 0.0
-0.0583402118725 0.24531077198 0.0
-0.0527675981285 -0.0544501839724 0.0
-0.0558250470355 0.0337442410593 0.0
-0.143219153075 -0.349734673904 0.0
-0.023670290115 0.207270359342 0.0
-0.0599388596131 -0.0359447380961 0.0
-0.0516895659045 0.0583369364253 0.0
-0.172431502729 0.0973874303399 0.0
-0.172957930898 0.113723275216 0.0
-0.214419507968 -0.271849713505 0.0
-0.108278628438 -0.0378209780353 0.0
-0.0965793995416 0.197782223049 0.0
-0.23114088333 -0.15734402337 0.0
-0.127139185398 0.0773606257899 0.0
-0.152485299299 0.0080099066919 0.0
0.37392568407 -0.115153455471 0.0
-0.0510433322216 0.236916579279 0.0
-0.00529743258736 -0.00962935741943 0.0
-0.0141566955992 0.00640004121751 0.0
-0.00918497395692 -0.00585083493635 0.0
-0.0868204170942 -0.525925419444 0.0
-0.00840199055869 0.0150879003539 0.0
0.0954292168516 0.147521780246 0.0
-0.164794956852 -0.076430667271 0.0
-0.0694738554763 0.0983383761614 0.0
-0.11693050966 0.167034082878 0.0
-0.165088612008 -0.0766103715971 0.0
0.559615479691 0.00278971609444 0.0
-0.0158354729581 0.138317401968 0.0
-0.0199391923688 -0.0639456940551 0.0
-0.0388496754607 0.00369269899666 0.0
-0.0695260911765 -0.325641002817 0.0
-0.0294029968004 -0.00573764945986 0.0
0.380684540397 0.0576216450647 0.0
-0.011897162824 0.0475596663639 0.0
-0.172575101062 -0.30247231213 0.0
0.121955340195 0.117505873572 0.0
-0.0862584331644 -0.0110610945337 0.0
-0.0541711961934 0.124548176176 0.0
0.146947118188 0.051073248819 0.0
-0.0604457801094 0.19110608919 0.0
-0.108667707423 -0.161979375271 0.0
-0.0910635306576 0.0115022724005 0.0
-0.187155296545 0.0611426884508 0.0
-0.0931900461982 -0.0987116684882 0.0
-0.0814842849326 0.0333204218696 0.0
0.0537725270118 -0.0547060460348 0.0
-0.0662146437439 0.232224677791 0.0
-0.227639481252 -0.0282283788614 0.0
0.581238813375 -0.014988501305 0.0
-0.0148524678115 0.153958789398 0.0
-0.0109056444563 -0.0341397477446 0.0
-0.0295049256235 0.00465295433571 0.0
-0.227856640219 -0.245469261525 0.0
-0.123669688542 -0.0193065208657 0.0
-0.145796825633 0.147474816429 0.0
-0.0308345531893 0.150230447506 0.0
-0.102765224232 0.136308261856 0.0
-0.215884486912 -0.0449600173608 0.0
-0.199563620064 -0.044362350494 0.0
-0.15778947147 0.0833577292733 0.0
-0.209981652261 0.0214394142382 0.0
-0.182534707295 0.107335353641 0.0
0.572478537594 0.018674236882 0.0
-0.0112615629598 0.088704601691 0.0
-0.0270600805012 -0.124050889964 0.0
-0.038189306137 -0.000558827040435 0.0
0.199039722367 0.0825981509556 0.0
-0.0471793090821 0.146362980586 0.0
-0.125810476602 -0.230709921868 0.0
-0.0824060929518 -0.000845354178773 0.0
0.227720042575 -0.0636573990026 0.0
-0.0472446579451 0.231964577623 0.0
-0.0425675305925 -0.0638059707176 0.0
-0.0545389236389 0.0200435781665 0.0
-0.101768923059 -0.407518475642 0.0
-0.0227952101408 0.204309220857 0.0
-0.0340794591679 -0.0236776599677 0.0
-0.0314840531251 0.0379670702473 0.0
-0.0327341780597 0.20423119491 0.0
-0.0749741069702 0.077840237903 0.0
-0.114334450991 0.0539932187827 0.0
-0.0366477291893 -0.207475850054 0.0
-0.0293261273331 -0.00290559789736 0.0
0.539365019959 0.0271275786412 0.0
-0.00872296407866 0.0534426076782 0.0
-0.0864160033672 0.218027001573 0.0
-0.190881319348 -0.175166650906 0.0
-0.137544522689 0.0300433895903 0.0
8.20463729502e-05 2.82250098708e-05 0.0
-0.00065707784716 0.000815482961746 0.0
0.071956115213 -0.349574964212 0.0
-0.0642798717665 0.270020469519 0.0
0.645607734811 0.00885197197077 0.0
-0.00879503458879 0.0979864272478 0.0
-0.0153531440823 -0.0723228857191 0.0
-0.0336167471171 0.00102046218409 0.0
0.604552669632 -0.0302559165935 0.0
-0.0153072542315 0.163890178952 0.0
-0.00409238423855 -0.0111410761477 0.0
-0.0150767479498 0.00331521198081 0.0
-0.0610550971582 -0.416156403908 0.0
-0.0111061976398 -0.00342029924971 0.0
0.35828342302 0.0640226156488 0.0
-0.00519333947569 0.0181155334885 0.0
0.158298561549 -0.164766316727 0.0
-0.0577296211142 0.250356934566 0.0
-0.0251711032658 -0.0333792528531 0.0
-0.0363341277853 0.0203487396629 0.0
-0.159887423786 -0.432303377172 0.0
0.070119433703 0.152869353596 0.0
-0.049681588823 -0.0210501212044 0.0
-0.0342031973608 0.0612086992663 0.0
0.00139588838013 0.0763450671275 0.0
-0.0933768051861 0.18571182578 0.0
-0.137921909115 -0.0976802935497 0.0
-0.139525442895 0.0936456254693 0.0
-0.144566517687 0.147219768793 0.0
-0.0868872836074 -0.0589601546122 0.0
-0.192045712066 -0.171836101181 0.0
-0.132906016077 -0.060279441299 0.0
-0.0806506128315 0.0480201754532 0.0
-0.110636157127 0.189067133913 0.0
-0.18176263923 -0.110898317101 0.0
-0.244403826319 -0.109049233716 0.0
-0.176711746148 -0.00884116141255 0.0
0.463058477862 -0.0985216742164 0.0
-0.0490044101471 0.228159393368 0.0
-0.00113293875266 -0.00174421411941 0.0
-0.00480197272876 0.00210576358045 0.0
-0.00198538874774 -0.00144235491078 0.0
-0.0665189582669 -0.518736368076 0.0
-0.00242084893983 0.00490609873421 0.0
0.163881944873 0.121083502211 0.0
-0.0642297830506 0.204255347329 0.0
-0.115505001599 0.102236985904 0.0
-0.118654829839 0.0144602807441 0.0
0.334440162096 0.0240028369057 0.0
-0.0345643330045 0.175382701565 0.0
-0.0566930714638 -0.119257634613 0.0
-0.0628171166753 0.00716099878747 0.0
-0.0791263681731 -0.221857926746 0.0
-0.0543171566929 0.232568914271 0.0
-0.0723087729867 -0.0549346828268 0.0
-0.0653516876807 0.0502853298489 0.0
-0.171521573848 -0.266203690126 0.0
-0.0917018984392 -0.0482318694257 0.0
0.113013300195 0.00944940053301 0.0
-0.0651300398684 0.215753740596 0.0
-0.103021543836 -0.128363792406 0.0
-0.0897010835214 0.0224603629598 0.0
-0.046464971307 -0.324195081412 0.0
-0.0159782382122 -0.00310874679 0.0
0.489866151363 0.0354499744174 0.0
-0.00528721757038 0.0258868656872 0.0
0.110551787191 -0.294869269708 0.0
-0.0760138166809 0.256750242397 0.0
-0.00921681723072 -0.0104907931339 0.0
-0.014663224795 0.0122300230441 0.0
0.0446271843138 0.156641127019 0.0
-0.0641311319179 0.105577964004 0.0
-0.237857161351 -0.0876119843623 0.0
-0.179056114926 0.0242022781903 0.0
-0.0674562633838 0.178557385033 0.0
-0.0100270245436 -0.25796592838 0.0
-0.0566663897088 0.240438498342 0.0
-0.039937994441 -0.0366331797005 0.0
-0.0432866126891 0.0351046562935 0.0
-0.100842063807 0.0847181898879 0.0
-0.105938767898 -0.316224332604 0.0
0.273572331938 0.0781108194296 0.0
-0.0518358216687 -0.00861906166907 0.0
-0.0249263900796 0.0835325620211 0.0
-0.200044192652 -0.33509052588 0.0
-0.0869778273647 -0.0224138753346 0.0
-0.209129613583 0.0329904386222 0.0
-0.225216273209 0.00830498811062 0.0
-0.136572438015 0.0523994073223 0.0
-0.190150928332 -0.359536810963 0.0
-0.075512512895 -0.0311968704696 0.0
0.0179104443506 0.176830304352 0.0
-0.0534156006178 0.0769892055647 0.0
-0.160183527887 0.140194859524 0.0
-0.0181239041089 -0.117427957483 0.0
-0.0254221978836 -0.00092977614371 0.0
0.683564113788 0.0140706861745 0.0
-0.00523966920816 0.0522096760974 0.0
-0.110000760246 0.196156082425 0.0
-0.210041509877 -0.137972148021 0.0
-0.0826604346326 -0.45894168616 0.0
-0.0173163291122 0.197100437041 0.0
-0.019085908453 -0.0136934573519 0.0
-0.0185066224522 0.0248187682703 0.0
0.364946362013 0.055975356079 0.0
-0.0259031380995 0.12010589993 0.0
-0.072296118101 -0.19319328987 0.0
-0.0577845082526 -0.000908058124376 0.0
-0.194255554381 0.078662144524 0.0
0.0271123212106 0.147145741838 0.0
-0.0800604428575 0.129942646094 0.0
0.369993416465 -0.0303005827477 0.0
-0.0334107460735 0.204774350306 0.0
-0.0296053082685 -0.0587219876018 0.0
-0.0462617374466 0.0114361568893 0.0
-0.203872579375 0.0603698228331 0.0
0.704504840524 -0.0119922224428 0.0
-0.00737331294518 0.12253560549 0.0
-0.00375542095623 -0.0144424637563 0.0
-0.0168870585828 0.00247164318691 0.0
-0.158776955775 0.11140831569 0.0
0.734419337192 -0.00768876389075 0.0
-0.00749568857423 0.0990407142506 0.0
-0.00520449391591 -0.0279279352992 0.0
-0.0223360240412 0.00134064077603 0.0
-0.240727117089 -0.181742313819 0.0
-0.149352581588 -0.014670025756 0.0
-0.109628821025 0.174830005799 0.0
-0.135099596357 0.134816694349 0.0
-0.231587726057 -0.208253616747 0.0
-0.135101721399 -0.0363315389101 0.0
0.204038550235 -0.179436433612 0.0
-0.0626808732025 0.253228996951 0.0
-0.012867065127 -0.0188860264167 0.0
-0.0233305043164 0.0133098635886 0.0
-0.0229398224471 -0.118764323633 0.0
-0.0650443178805 0.236081868135 0.0
-0.0879007781034 -0.0777509709938 0.0
-0.0779858495221 0.0454479683719 0.0
-0.0360903474829 -0.450720146561 0.0
-0.0078099073394 -0.00688045608841 0.0
-0.0429630551151 0.212599818595 0.0
-0.00999693556239 0.0122596378812 0.0
-0.13923915682 -0.00656269923323 0.0
-0.218589621355 -0.209208449616 0.0
-0.129988645283 -0.00225419870775 0.0
-0.152259208218 -0.169874582126 0.0
-0.137947231254 0.0966415308052 0.0
-0.196219427984 -0.266130790504 0.0
-0.104645691143 -0.00987206135712 0.0
-0.125195044309 0.178551776265 0.0
-0.174918572525 0.0610697745561 0.0
-0.0141686331932 0.118009625509 0.0
-0.0729829752533 0.138437468781 0.0
-0.09881666275 0.160387785591 0.0
-0.123941855218 0.142018643797 0.0
-0.212264244908 -0.100177224317 0.0
-0.196166395173 -0.0789491141846 0.0
-0.171086455433 -0.0549890857347 0.0
0.666117147653 -0.033849895924 0.0
-0.0172975218295 0.15188774413 0.0
-0.0013052264359 -0.00338811098683 0.0
-0.00799530775245 0.00167863048548 0.0
-0.00483838219779 -0.00130876771488 0.0
-0.0451530886875 -0.396635121894 0.0
-0.00189473329219 0.00826627325112 0.0
0.434314290313 0.0517265043176 0.0
0.0657486011612 0.0440969991831 0.0
-0.0742205366024 0.201252384525 0.0
-0.0212559000137 -0.181710606652 0.0
-0.0182057826124 -0.00183442751691 0.0
0.657585592783 0.0139722385377 0.0
-0.00409300140271 0.0314007445213 0.0
0.23336024209 0.0595687301186 0.0
-0.0461084271599 0.165597627003 0.0
-0.106342667203 -0.186952914749 0.0
-0.0787120659253 0.00391569356445 0.0
0.795166138397 0.00251632705871 0.0
-0.00382265191035 0.0700331290138 0.0
-0.0057505723829 -0.0313904173903 0.0
-0.020059555115 0.000993245120799 0.0
-0.119115435241 -0.435913172772 0.0
-0.0464713279761 -0.013227042305 0.0
0.156247559967 0.114193836013 0.0
-0.0285279392669 0.0686104786568 0.0
0.238066079367 0.0832428151363 0.0
-0.11202326898 -0.264168812438 0.0
-0.0360471026831 0.11822546954 0.0
-0.0677183639188 -0.00555496629123 0.0
-0.154554955235 -0.338449001598 0.0
0.152385793247 0.11555849707 0.0
-0.0689956851528 -0.0130716869799 0.0
-0.0426953260514 0.101700251635 0.0
-0.0786245891211 0.22479855074 0.0
-0.0985277631636 0.0394916637608 0.0
-0.102635551115 -0.507825970181 0.0
-0.01672067812 -0.00811708789909 0.0
0.123745956133 0.128092052474 0.0
-0.011808260059 0.0248320412137 0.0
-0.160386673538 0.0243276584672 0.0
0.360360146928 -0.101539889716 0.0
-0.0438700555237 0.232017086101 0.0
-0.00929945224587 -0.0173037845606 0.0
-0.0216461737308 0.0086865233383 0.0
-0.175954533362 0.0921904385917 0.0
-0.217001706199 -0.0514366729715 0.0
-0.147412462279 0.0716874984048 0.0
0.406672437799 0.00115747110995 0.0
-0.0277293593415 0.179672654164 0.0
-0.034800108013 -0.0802381892621 0.0
-0.0511706611599 0.00814533826924 0.0
-0.00014283318242 9.07981927579e-05 0.0
-0.00145903985139 0.000837492750709 0.0
0.385913246239 -0.154703423269 0.0
-0.000343268373986 -0.000257590671015 0.0
-0.0684146508259 0.26668809547 0.0
-0.0515492486276 -0.491049588899 0.0
-0.000687834896555 0.00132841347381 0.0
0.213325699673 0.114308701528 0.0
-0.103447333021 0.0182053611843 0.0
-0.0655314812859 -0.0886151582454 0.0
-0.0694483314236 0.0230530537082 0.0
0.0827875145453 0.0744430324949 0.0
-0.073894193898 0.183682561418 0.0
-0.113199947216 0.0733045043498 0.0
-0.129335424033 0.168516873774 0.0
-0.140412433131 -0.401279838758 0.0
-0.0337414668583 -0.0102274904472 0.0
0.216158195822 0.0932851299026 0.0
-0.0183288426594 0.0502314267719 0.0
0.158985652651 -0.0438182793357 0.0
-0.0548327299598 0.230914935271 0.0
-0.137702895026 -0.0782656355758 0.0
-0.112391333173 0.0704143383019 0.0
-0.173792567951 0.0630257264149 0.0
0.477769947202 0.0162018844276 0.0
-0.0210168793781 0.141522753484 0.0
-0.0343614534972 -0.0993849924822 0.0
-0.0485500728877 0.00314122215997 0.0
0.102832654701 0.111444049573 0.0
-0.0649222410771 0.146129258837 0.0
-0.213149824202 -0.0218200593227 0.0
-0.146500374492 -0.110594269318 0.0
-0.101678243535 0.00843940431394 0.0
-0.13978707168 -0.200261508101 0.0
-0.196405202884 0.00459662378734 0.0
-0.0838486422671 -0.00558692553582 0.0
-0.190443517633 0.0302313159185 0.0
0.0049187022856 -0.0260974743484 0.0
-0.124805686103 -0.114873876225 0.0
-0.0783253837221 0.216088632463 0.0
-0.186193580309 -0.0445296010378 0.0
0.201179636075 0.0239142300492 0.0
-0.0517291003588 0.201440702364 0.0
-0.082458093726 -0.13319657666 0.0
-0.0777434148691 0.0143328703459 0.0
-0.0993339409007 0.204726179202 0.0
-0.187213488027 -0.140245726029 0.0
-0.00519102951797 0.183399319008 0.0
-0.072607514702 0.0935033845689 0.0
-0.219979132861 -0.289117926432 0.0
-0.106776210588 -0.0263064259986 0.0
0.800149442455 0.00813324299139 0.0
-0.0019996036924 0.0541483578827 0.0
-0.00704728167154 -0.0485806605208 0.0
-0.0208450612465 0.000520943797459 0.0
-0.0660173409354 -0.0760216045227 0.0
-0.068584777111 0.031466912922 0.0
-0.167044080264 0.120644564261 0.0
0.0843691976234 -0.0913219806025 0.0
-0.0591039931472 0.240233870787 0.0
-0.225722135511 -0.0237037764072 0.0
-0.222378425036 0.00707282157965 0.0
-0.2362492396 -0.0469695721084 0.0
-0.126381692733 0.038319909381 0.0
-0.115258419723 0.122721155589 0.0
-0.236473967883 -0.0973318130877 0.0
-0.196026341675 -0.0176436199797 0.0
-0.0843297527219 -0.292330232678 0.0
-0.0453224419918 0.226855300447 0.0
-0.0548003413619 -0.0404047123547 0.0
-0.0526874230025 0.0485052256411 0.0
-0.14800860603 -0.414125482961 0.0
0.00844390454866 0.183830608719 0.0
-0.0477817128208 -0.0258895453278 0.0
-0.0369357353357 0.0528848808521 0.0
-0.136906247962 0.0152117325899 0.0
0.233358700284 -0.0967985548058 0.0
-0.0482149558494 0.23949604107 0.0
-0.0297836034115 -0.0449806669525 0.0
-0.0434775214251 0.018476039673 0.0
0.438676656426 -0.0372674490543 0.0
-0.0271201949014 0.197200484124 0.0
-0.0175024625247 -0.0397502080247 0.0
-0.0357665259531 0.0086870297573 0.0
0.0209024295069 0.132450209733 0.0
-0.0860458318068 0.146997990158 0.0
-0.0933109475315 0.050167395399 0.0
-0.218129206126 -0.15677133782 0.0
-0.149860848435 -0.0491697354591 0.0
-0.111880694148 0.125109524278 0.0
-0.139258681857 0.136977678449 0.0
0.79110188842 -0.00645234689662 0.0
-0.00403430840413 0.0894126594815 0.0
-0.0022672061459 -0.0137066536754 0.0
-0.0154720022833 0.00112416937958 0.0
-0.0721616898221 0.22972473506 0.0
-0.145799217002 0.157543633464 0.0
-0.0175616838747 -0.167396894904 0.0
-0.0126832674271 -0.000929978186251 0.0
0.707644708694 0.0155187423172 0.0
-0.00180556920705 0.0204926026809 0.0
0.54154706328 -0.00597408208855 0.0
-0.0175455188019 0.154064715935 0.0
-0.0179457720468 -0.0524426298965 0.0
-0.037231948195 0.00506081794502 0.0
-0.0655337208584 0.159670056375 0.0
-0.0376069384751 0.168583707251 0.0
-0.048340275778 0.219495356014 0.0
-0.0742790853141 0.0655705183625 0.0
-0.226499649377 -0.000984538015319 0.0
0.270067049007 -0.186956957748 0.0
-0.071758907371 0.259238677141 0.0
-0.00400592237201 -0.0057548803602 0.0
-0.0095366107322 0.00595411571168 0.0
0.521860170855 0.0246465065823 0.0
-0.0166172814131 0.113192169436 0.0
-0.0355816394304 -0.116461705107 0.0
-0.0445024696103 0.00102817969526 0.0
0.133559446005 0.08689014777 0.0