# vtk DataFile Version 2.0
2D Simulation Python
ASCII
DATASET UNSTRUCTURED_GRID
FIELD FieldData 1
NODES 1 2 int
3798 7382

POINTS 3798 double
0.0 0.0 0.0
1.0 0.0 0.0
1.0 1.0 0.0
0.0 1.0 0.0
0.01886792452826637 0.0 0.0
0.03773584905653053 0.0 0.0
0.05660377358479097 0.0 0.0
0.07547169811305962 0.0 0.0
0.09433962264133271 0.0 0.0
0.1132075471696058 0.0 0.0
0.1320754716978688 0.0 0.0
0.1509433962261159 0.0 0.0
0.1698113207543628 0.0 0.0
0.1886792452826097 0.0 0.0
0.2075471698108566 0.0 0.0
0.2264150943391035 0.0 0.0
0.2452830188673504 0.0 0.0
0.2641509433955972 0.0 0.0
0.2830188679238441 0.0 0.0
0.301886792452091 0.0 0.0
0.3207547169803379 0.0 0.0
0.3396226415085848 0.0 0.0
0.3584905660368317 0.0 0.0
0.3773584905650785 0.0 0.0
0.3962264150933255 0.0 0.0
0.4150943396215723 0.0 0.0
0.4339622641498192 0.0 0.0
0.4528301886780661 0.0 0.0
0.4716981132063129 0.0 0.0
0.4905660377345599 0.0 0.0
0.5094339622628591 0.0 0.0
0.5283018867912108 0.0 0.0
0.5471698113195625 0.0 0.0
0.5660377358479143 0.0 0.0
0.5849056603762659 0.0 0.0
0.6037735849046176 0.0 0.0
0.6226415094329693 0.0 0.0
0.6415094339613208 0.0 0.0
0.6603773584896723 0.0 0.0
0.6792452830180238 0.0 0.0
0.6981132075463754 0.0 0.0
0.7169811320747269 0.0 0.0
0.7358490566030784 0.0 0.0
0.7547169811314299 0.0 0.0
0.7735849056597816 0.0 0.0
0.7924528301881331 0.0 0.0
0.8113207547164847 0.0 0.0
0.8301886792448361 0.0 0.0
0.8490566037731877 0.0 0.0
0.8679245283015392 0.0 0.0
0.8867924528298908 0.0 0.0
0.9056603773582425 0.0 0.0
0.9245283018865939 0.0 0.0
0.9433962264149454 0.0 0.0
0.962264150943297 0.0 0.0
0.9811320754716486 0.0 0.0
1.0 0.01886792452826637 0.0
1.0 0.03773584905653053 0.0
1.0 0.05660377358479097 0.0
1.0 0.07547169811305962 0.0
1.0 0.09433962264133271 0.0
1.0 0.1132075471696058 0.0
1.0 0.1320754716978688 0.0
1.0 0.1509433962261159 0.0
1.0 0.1698113207543628 0.0
1.0 0.1886792452826097 0.0
1.0 0.2075471698108566 0.0
1.0 0.2264150943391035 0.0
1.0 0.2452830188673504 0.0
1.0 0.2641509433955972 0.0
1.0 0.2830188679238441 0.0
1.0 0.301886792452091 0.0
1.0 0.3207547169803379 0.0
1.0 0.3396226415085848 0.0
1.0 0.3584905660368317 0.0
1.0 0.3773584905650785 0.0
1.0 0.3962264150933255 0.0
1.0 0.4150943396215723 0.0
1.0 0.4339622641498192 0.0
1.0 0.4528301886780661 0.0
1.0 0.4716981132063129 0.0
1.0 0.4905660377345599 0.0
1.0 0.5094339622628591 0.0
1.0 0.5283018867912108 0.0
1.0 0.5471698113195625 0.0
1.0 0.5660377358479143 0.0
1.0 0.5849056603762659 0.0
1.0 0.6037735849046176 0.0
1.0 0.6226415094329693 0.0
1.0 0.6415094339613208 0.0
1.0 0.6603773584896723 0.0
1.0 0.6792452830180238 0.0
1.0 0.6981132075463754 0.0
1.0 0.7169811320747269 0.0
1.0 0.7358490566030784 0.0
1.0 0.7547169811314299 0.0
1.0 0.7735849056597816 0.0
1.0 0.7924528301881331 0.0
1.0 0.8113207547164847 0.0
1.0 0.8301886792448361 0.0
1.0 0.8490566037731877 0.0
1.0 0.8679245283015392 0.0
1.0 0.8867924528298908 0.0
1.0 0.9056603773582425 0.0
1.0 0.9245283018865939 0.0
1.0 0.9433962264149454 0.0
1.0 0.962264150943297 0.0
1.0 0.9811320754716486 0.0
0.9811320754716195 1.0 0.0
0.9622641509432391 1.0 0.0
0.9433962264148587 1.0 0.0
0.9245283018864782 1.0 0.0
0.9056603773580978 1.0 0.0
0.8867924528297173 1.0 0.0
0.8679245283014174 1.0 0.0
0.8490566037732444 1.0 0.0
0.8301886792450734 1.0 0.0
0.8113207547169025 1.0 0.0
0.7924528301887315 1.0 0.0
0.7735849056605606 1.0 0.0
0.7547169811323896 1.0 0.0
0.7358490566042186 1.0 0.0
0.7169811320760476 1.0 0.0
0.6981132075478766 1.0 0.0
0.6792452830197057 1.0 0.0
0.6603773584915346 1.0 0.0
0.6415094339633636 1.0 0.0
0.6226415094351925 1.0 0.0
0.6037735849070215 1.0 0.0
0.5849056603788504 1.0 0.0
0.5660377358506794 1.0 0.0
0.5471698113225083 1.0 0.0
0.5283018867943372 1.0 0.0
0.5094339622661662 1.0 0.0
0.4905660377378905 1.0 0.0
0.4716981132095099 1.0 0.0
0.4528301886811295 1.0 0.0
0.4339622641527489 1.0 0.0
0.4150943396243684 1.0 0.0
0.3962264150959879 1.0 0.0
0.3773584905676074 1.0 0.0
0.358490566039227 1.0 0.0
0.3396226415108468 1.0 0.0
0.3207547169824663 1.0 0.0
0.3018867924540859 1.0 0.0
0.2830188679257056 1.0 0.0
0.2641509433973251 1.0 0.0
0.2452830188689448 1.0 0.0
0.2264150943405645 1.0 0.0
0.2075471698121841 1.0 0.0
0.1886792452838036 1.0 0.0
0.1698113207554234 1.0 0.0
0.150943396227043 1.0 0.0
0.1320754716986625 1.0 0.0
0.1132075471702823 1.0 0.0
0.09433962264190188 1.0 0.0
0.0754716981135215 1.0 0.0
0.05660377358514113 1.0 0.0
0.03773584905676075 1.0 0.0
0.01886792452838049 1.0 0.0
0.0 0.9811320754716195 0.0
0.0 0.9622641509432391 0.0
0.0 0.9433962264148587 0.0
0.0 0.9245283018864782 0.0
0.0 0.9056603773580978 0.0
0.0 0.8867924528297173 0.0
0.0 0.8679245283014174 0.0
0.0 0.8490566037732444 0.0
0.0 0.8301886792450734 0.0
0.0 0.8113207547169025 0.0
0.0 0.7924528301887315 0.0
0.0 0.7735849056605606 0.0
0.0 0.7547169811323896 0.0
0.0 0.7358490566042186 0.0
0.0 0.7169811320760476 0.0
0.0 0.6981132075478766 0.0
0.0 0.6792452830197057 0.0
0.0 0.6603773584915346 0.0
0.0 0.6415094339633636 0.0
0.0 0.6226415094351925 0.0
0.0 0.6037735849070215 0.0
0.0 0.5849056603788504 0.0
0.0 0.5660377358506794 0.0
0.0 0.5471698113225083 0.0
0.0 0.5283018867943372 0.0
0.0 0.5094339622661662 0.0
0.0 0.4905660377378905 0.0
0.0 0.4716981132095099 0.0
0.0 0.4528301886811295 0.0
0.0 0.4339622641527489 0.0
0.0 0.4150943396243684 0.0
0.0 0.3962264150959879 0.0
0.0 0.3773584905676074 0.0
0.0 0.358490566039227 0.0
0.0 0.3396226415108468 0.0
0.0 0.3207547169824663 0.0
0.0 0.3018867924540859 0.0
0.0 0.2830188679257056 0.0
0.0 0.2641509433973251 0.0
0.0 0.2452830188689448 0.0
0.0 0.2264150943405645 0.0
0.0 0.2075471698121841 0.0
0.0 0.1886792452838036 0.0
0.0 0.1698113207554234 0.0
0.0 0.150943396227043 0.0
0.0 0.1320754716986625 0.0
0.0 0.1132075471702823 0.0
0.0 0.09433962264190188 0.0
0.0 0.0754716981135215 0.0
0.0 0.05660377358514113 0.0
0.0 0.03773584905676075 0.0
0.0 0.01886792452838049 0.0
0.49961422419268997 0.4984293794066726 0.0
0.7093511500970902 0.706792936500378 0.0
0.29287482782244045 0.7110496278611782 0.0
0.7065208514432915 0.2921137893028175 0.0
0.2917146567058879 0.2951459957249887 0.0
0.5010883512796402 0.783530677658598 0.0
0.2164159732426224 0.5012876322837192 0.0
0.7820505253934122 0.4994927647991782 0.0
0.4969563419356505 0.21663804071479492 0.0
0.8269192007901067 0.8287013252031155 0.0
0.1712682973217082 0.8268730922835856 0.0
0.8299941553097447 0.17180608262880254 0.0
0.17180615988223974 0.17000622072452293 0.0
0.5640959313975822 0.6420224840910225 0.0
0.36076803388570655 0.5671667288006801 0.0
0.641160245161879 0.4320186669377829 0.0
0.4354935082651592 0.36378759861759746 0.0
0.6410454186381067 0.8479832937118897 0.0
0.1518368310809157 0.6410829539811169 0.0
0.8477907051244511 0.3598243790179788 0.0
0.35938579904680457 0.15130729784326102 0.0
0.8497305928919907 0.6399401683101269 0.0
0.3617952267412937 0.8474454291453152 0.0
0.6436051449793575 0.15189469658234833 0.0
0.15079737625026685 0.3588783576988489 0.0
0.6832039587940572 0.5823618751624478 0.0
0.4454396775914624 0.6627381531764 0.0
0.33424594078221964 0.4385872006022409 0.0
0.5773189844856303 0.3195812160927133 0.0
0.5368082180804761 0.8869865896668006 0.0
0.11301341973883329 0.5368082072162796 0.0
0.8863497125425446 0.46278650800142523 0.0
0.46231798559604276 0.1137357048419064 0.0
0.735504344602733 0.8878298811845817 0.0
0.11217246241749894 0.7355045289688809 0.0
0.8876386118329569 0.26464529586215935 0.0
0.26447675721717134 0.11218714573944835 0.0
0.8918893682153743 0.7430319146751548 0.0
0.7378676821853629 0.10938784471235846 0.0
0.2618554236513495 0.8907466135047526 0.0
0.10927139946373736 0.2618885660485004 0.0
0.6036356850091371 0.740958324467786 0.0
0.2594197395873493 0.6024781400358834 0.0
0.7471835282093033 0.3970113006814754 0.0
0.39635295506120277 0.25856270415268773 0.0
0.5973835830959042 0.5282120591728078 0.0
0.5269880475515504 0.40324375384926064 0.0
0.900344051349824 0.09737126935472232 0.0
0.09737116846728401 0.09965601878423913 0.0
0.9027736024298996 0.9004379740924425 0.0
0.09965486244215357 0.9026299600545967 0.0
0.3830054844266893 0.7484876862569074 0.0
0.25074672726321157 0.3828059459383084 0.0
0.9036934196956306 0.5634343341860331 0.0
0.436167023944368 0.903809418557912 0.0
0.5634650142808684 0.09627038765249357 0.0
0.09611428176536896 0.43622888244072316 0.0
0.7383691909253696 0.7977530090605311 0.0
0.20213608094646243 0.7381864461382426 0.0
0.7965379729869333 0.25833485688790847 0.0
0.25825176979143294 0.20343822649683996 0.0
0.8016496201203362 0.7232057683389532 0.0
0.27776554876540255 0.7985644202275013 0.0
0.7230025466734626 0.19888476423555862 0.0
0.20134253349952064 0.2778412830843111 0.0
0.48914355287031674 0.5909586444150075 0.0
0.4113298235007088 0.49483643887222295 0.0
0.7553604068177817 0.6323161440656005 0.0
0.6323326401346647 0.2446343261447706 0.0
0.3558016573651024 0.6535168196958461 0.0
0.6947272998992697 0.49553252027219197 0.0
0.34695271761644664 0.35520182412877976 0.0
0.49374473330545476 0.3082796821038452 0.0
0.8187154539118972 0.9148861354006228 0.0
0.08511383208187207 0.8187154148724425 0.0
0.9150328940734902 0.18133025458140606 0.0
0.18128457425270267 0.0851129709589244 0.0
0.8187403987114168 0.08420346742597412 0.0
0.9157746719419576 0.8186373542270347 0.0
0.08420340483892619 0.18125955209024192 0.0
0.18126035834340148 0.9157847355643594 0.0
0.6491759294498078 0.6582605894876106 0.0
0.518075563238964 0.700155561243168 0.0
0.2994944160935228 0.5182519107636043 0.0
0.6529572976260253 0.35254842454839763 0.0
0.6097401473872117 0.9217208439447089 0.0
0.07827850601264716 0.6097398708442259 0.0
0.9217267277120186 0.3902548071573767 0.0
0.39024121399465406 0.07825838690395835 0.0
0.9257398577009572 0.6657069734842804 0.0
0.6657516430505073 0.07518432263878908 0.0
0.3341866530930919 0.9246109018771522 0.0
0.07542270790545244 0.3342243925275289 0.0
0.8225798016625723 0.5644120390192462 0.0
0.43501894509773303 0.8272239480204406 0.0
0.5644015723185061 0.17743228884395235 0.0
0.1728552698143025 0.4351788286843611 0.0
0.5668992511560398 0.812632221934239 0.0
[...]
POINT_DATA 3798
VECTORS vector double
0.0 0.0 0.0
0.0 0.0 0.0
0.0 0.0 0.0
0.0 0.0 0.0
0.0 0.0 0.0
0.0 0.0 0.0
0.0 0.0 0.0
0.0 0.0 0.0
0.0 0.0 0.0
0.0 0.0 0.0
0.0 0.0 0.0
0.0 0.0 0.0
0.0 0.0 0.0
0.0 0.0 0.0
0.0 0.0 0.0
0.0 0.0 0.0
0.0 0.0 0.0
0.0 0.0 0.0
0.0 0.0 0.0
0.0 0.0 0.0
0.0 0.0 0.0
0.0 0.0 0.0
0.0 0.0 0.0
0.0 0.0 0.0
0.0 0.0 0.0
0.0 0.0 0.0
0.0 0.0 0.0
0.0 0.0 0.0
0.0 0.0 0.0
0.0 0.0 0.0
0.0 0.0 0.0
0.0 0.0 0.0
0.0 0.0 0.0
0.0 0.0 0.0
0.0 0.0 0.0
0.0 0.0 0.0
0.0 0.0 0.0
0.0 0.0 0.0
0.0 0.0 0.0
0.0 0.0 0.0
0.0 0.0 0.0
0.0 0.0 0.0
0.0 0.0 0.0
0.0 0.0 0.0
0.0 0.0 0.0
0.0 0.0 0.0
0.0 0.0 0.0
0.0 0.0 0.0
0.0 0.0 0.0
0.0 0.0 0.0
0.0 0.0 0.0
0.0 0.0 0.0
0.0 0.0 0.0
0.0 0.0 0.0
0.0 0.0 0.0
0.0 0.0 0.0
0.0 0.0 0.0
0.0 0.0 0.0
0.0 0.0 0.0
0.0 0.0 0.0
0.0 0.0 0.0
0.0 0.0 0.0
0.0 0.0 0.0
0.0 0.0 0.0
0.0 0.0 0.0
0.0 0.0 0.0
0.0 0.0 0.0
0.0 0.0 0.0
0.0 0.0 0.0
0.0 0.0 0.0
0.0 0.0 0.0
0.0 0.0 0.0
0.0 0.0 0.0
0.0 0.0 0.0
0.0 0.0 0.0
0.0 0.0 0.0
0.0 0.0 0.0
0.0 0.0 0.0
0.0 0.0 0.0
0.0 0.0 0.0
0.0 0.0 0.0
0.0 0.0 0.0
0.0 0.0 0.0
0.0 0.0 0.0
0.0 0.0 0.0
0.0 0.0 0.0
0.0 0.0 0.0
0.0 0.0 0.0
0.0 0.0 0.0
0.0 0.0 0.0
0.0 0.0 0.0
0.0 0.0 0.0
0.0 0.0 0.0
0.0 0.0 0.0
0.0 0.0 0.0
0.0 0.0 0.0
0.0 0.0 0.0
0.0 0.0 0.0
0.0 0.0 0.0
0.0 0.0 0.0
0.0 0.0 0.0
0.0 0.0 0.0
0.0 0.0 0.0
0.0 0.0 0.0
0.0 0.0 0.0
0.0 0.0 0.0
0.0 0.0 0.0
0.0 0.0 0.0
1.0 0.0 0.0
1.0 0.0 0.0
1.0 0.0 0.0
1.0 0.0 0.0
1.0 0.0 0.0
1.0 0.0 0.0
1.0 0.0 0.0
1.0 0.0 0.0
1.0 0.0 0.0
1.0 0.0 0.0
1.0 0.0 0.0
1.0 0.0 0.0
1.0 0.0 0.0
1.0 0.0 0.0
1.0 0.0 0.0
1.0 0.0 0.0
1.0 0.0 0.0
1.0 0.0 0.0
1.0 0.0 0.0
1.0 0.0 0.0
1.0 0.0 0.0
1.0 0.0 0.0
1.0 0.0 0.0
1.0 0.0 0.0
1.0 0.0 0.0
1.0 0.0 0.0
1.0 0.0 0.0
1.0 0.0 0.0
1.0 0.0 0.0
1.0 0.0 0.0
1.0 0.0 0.0
1.0 0.0 0.0
1.0 0.0 0.0
1.0 0.0 0.0
1.0 0.0 0.0
1.0 0.0 0.0
1.0 0.0 0.0
1.0 0.0 0.0
1.0 0.0 0.0
1.0 0.0 0.0
1.0 0.0 0.0
1.0 0.0 0.0
1.0 0.0 0.0
1.0 0.0 0.0
1.0 0.0 0.0
1.0 0.0 0.0
1.0 0.0 0.0
1.0 0.0 0.0
1.0 0.0 0.0
1.0 0.0 0.0
1.0 0.0 0.0
1.0 0.0 0.0
0.0 0.0 0.0
0.0 0.0 0.0
0.0 0.0 0.0
0.0 0.0 0.0
0.0 0.0 0.0
0.0 0.0 0.0
0.0 0.0 0.0
0.0 0.0 0.0
0.0 0.0 0.0
0.0 0.0 0.0
0.0 0.0 0.0
0.0 0.0 0.0
0.0 0.0 0.0
0.0 0.0 0.0
0.0 0.0 0.0
0.0 0.0 0.0
0.0 0.0 0.0
0.0 0.0 0.0
0.0 0.0 0.0
0.0 0.0 0.0
0.0 0.0 0.0
0.0 0.0 0.0
0.0 0.0 0.0
0.0 0.0 0.0
0.0 0.0 0.0
0.0 0.0 0.0
0.0 0.0 0.0
0.0 0.0 0.0
0.0 0.0 0.0
0.0 0.0 0.0
0.0 0.0 0.0
0.0 0.0 0.0
0.0 0.0 0.0
0.0 0.0 0.0
0.0 0.0 0.0
0.0 0.0 0.0
0.0 0.0 0.0
0.0 0.0 0.0
0.0 0.0 0.0
0.0 0.0 0.0
0.0 0.0 0.0
0.0 0.0 0.0
0.0 0.0 0.0
0.0 0.0 0.0
0.0 0.0 0.0
0.0 0.0 0.0
0.0 0.0 0.0
0.0 0.0 0.0
0.0 0.0 0.0
0.0 0.0 0.0
0.0 0.0 0.0
0.0 0.0 0.0
-0.138340682192 0.0245093278001 0.0
-0.195638851015 -0.102972765654 0.0
-0.114899731351 0.154249703954 0.0
-0.0578539567558 -0.0375423960004 0.0
-0.0496831413365 0.0356246934197 0.0
-0.0579901022416 0.0794023129283 0.0
-0.0577962180119 0.0978472927737 0.0
-0.115347944365 -0.127095767612 0.0
-0.0626405461907 0.00170599116815 0.0
-0.0407292757284 -0.271805148246 0.0
-0.0903651821533 0.219806330215 0.0
-0.01681416754 -0.016344560214 0.0
-0.0168611211253 0.0151167853724 0.0
-0.18348927332 0.0284834102481 0.0
-0.120036453651 0.0942105706822 0.0
-0.11498451381 -0.0474834628984 0.0
-0.0884189396541 0.0240221247874 0.0
0.151209564787 0.00914954056715 0.0
-0.0547362307175 0.152094440328 0.0
-0.0316740499672 -0.0597389002434 0.0
-0.0407192144531 0.00928158466203 0.0
-0.147263946151 -0.263605122154 0.0
0.0313600937946 0.0978307984438 0.0
-0.0415388141708 -0.00907180750588 0.0
-0.0240358372365 0.051782425627 0.0
-0.204457053854 -0.0861131115544 0.0
-0.149659733412 0.0913505088807 0.0
-0.0847831031209 0.0634623586066 0.0
-0.0831388456656 -0.0147879362531 0.0
0.27622613231 0.0308024849155 0.0
-0.0245040510956 0.096070169756 0.0
-0.0334844633248 -0.0911324486821 0.0
-0.0391936499844 0.0020007042114 0.0
0.291385405791 -0.0490961817086 0.0
-0.0510397343834 0.189552325132 0.0
-0.0116804273119 -0.0273852404002 0.0
-0.0231942291225 0.00726262457786 0.0
-0.137492619483 -0.398268230542 0.0
-0.0234064502334 -0.00735171777454 0.0
0.0856698610798 0.110898086675 0.0
-0.0108695201321 0.0254690424647 0.0
-0.123992216308 0.0261549940837 0.0
-0.0918733002811 0.130333419156 0.0
-0.0731635328292 -0.0732648364669 0.0
-0.0625158059094 0.0180279798959 0.0
-0.167790198794 -0.0225961871543 0.0
-0.111029035279 0.000678439366072 0.0
-0.00392124977197 -0.00396080801436 0.0
-0.00409711321742 0.00398696752044 0.0
0.0391082766735 -0.361102402 0.0
-0.0786896929311 0.253239866611 0.0
-0.108143992503 0.122874211841 0.0
-0.0528072465271 0.0593771864129 0.0
-0.0524260775921 -0.148335526016 0.0
0.310506556096 0.0384465997584 0.0
-0.0349246148824 -0.00178952808453 0.0
-0.0144850479939 0.0591995314195 0.0
-0.0411743289888 -0.110934767756 0.0
-0.0940161388586 0.192230169738 0.0
-0.0318181161248 -0.0344633193299 0.0
-0.0337175028789 0.0206117512819 0.0
-0.198175404458 -0.267881374422 0.0
-0.0852607672822 0.1619170342 0.0
-0.038741018984 -0.0206516974654 0.0
-0.030219319662 0.0355542414446 0.0
-0.155102381775 0.0530076691818 0.0
-0.117416969289 0.0586145532316 0.0
-0.216429988768 -0.175184811767 0.0
-0.0615675397453 -0.0184140316871 0.0
-0.128926472097 0.120208125326 0.0
-0.145403771528 -0.0846206975088 0.0
-0.0716457965255 0.0412197529573 0.0
-0.0809214892049 0.00504277490549 0.0
0.325705342105 -0.106605892392 0.0
-0.0605593225074 0.228775293739 0.0
-0.0051475495025 -0.0111884610602 0.0
-0.010637903648 0.00458241508886 0.0
-0.0105724984376 -0.00503499944914 0.0
-0.111609903749 -0.475426379593 0.0
-0.00562926720051 0.0110882999392 0.0
0.0900970693374 0.141161916396 0.0
-0.203424253155 -0.0381690406602 0.0
-0.150441046108 0.0688413713789 0.0
-0.0890631463968 0.0938648573541 0.0
-0.0872037045307 -0.038238744508 0.0
0.490859837735 0.006872764129 0.0
-0.0180664282406 0.101852773711 0.0
-0.0110699168676 -0.0446071179529 0.0
-0.0268970342555 0.00239191322319 0.0
-0.0628146057507 -0.235118001829 0.0
-0.0233743212471 -0.00312335111154 0.0
0.34649024494 0.046664624148 0.0
-0.00709429557776 0.030830451452 0.0
-0.118018666072 -0.185742770369 0.0
0.0133999633225 0.0854618657498 0.0
-0.0499843506859 -0.00451677852817 0.0
-0.0354839079153 0.0754465885035 0.0
0.018177928633 0.0479340944783 0.0
-0.0572699004758 0.123222575879 0.0
-0.0595365526325 -0.092151492944 0.0
-0.053173481781 0.00722888051045 0.0
-0.111744753753 0.0300677543125 0.0
-0.0496523336084 -0.055894723593 0.0
-0.0472003036093 0.0193393562484 0.0
-0.057624329034 -0.0224678075203 0.0
-0.0908100154285 0.161535541725 0.0
-0.138500674945 -0.0164662201744 0.0
0.526377878772 -0.00630299411678 0.0
-0.0204294589562 0.125340786641 0.0
-0.00667563599853 -0.0278631364104 0.0
-0.0210558495462 0.0030077967192 0.0
-0.174606348029 -0.143759035329 0.0
-0.0676357063824 -0.00820457954609 0.0
-0.142745915602 0.081335631292 0.0
-0.123969980843 0.0998950466364 0.0
-0.065151697834 0.0770977422236 0.0
-0.190794425225 -0.0220948168706 0.0
-0.108557702222 -0.0223399524704 0.0
-0.0915822196964 0.0427207906762 0.0
-0.17910971447 0.0119701560469 0.0
-0.143186133247 0.0558243184372 0.0
0.514950584626 0.0136638350715 0.0
-0.00877489908539 0.0584470077655 0.0
-0.0169072349669 -0.0789587219829 0.0
-0.0270407801871 -2.81687035816e-05 0.0
0.0754135861939 0.0634349821513 0.0
-0.035121169296 0.0916992545015 0.0
-0.0774250205575 -0.135803874635 0.0
-0.05025976812 0.000710550952179 0.0
0.131103389641 -0.0357228431373 0.0
-0.0682735925119 0.18079515816 0.0
-0.0250258072145 -0.0424132414617 0.0
-0.0347945876656 0.0123158320602 0.0
-0.16037210838 -0.342316867233 0.0
-0.0635289289109 0.175787012119 0.0
-0.0257536987614 -0.0156510605575 0.0
-0.0191902144112 0.0246160976914 0.0
-0.104769348406 0.145340934346 0.0
-0.0432528862865 0.0451352713928 0.0
-0.0612494929082 0.0294283808618 0.0
-0.0294058388949 -0.139457171779 0.0
-0.0224334997954 -0.00142711104869 0.0
0.501993648796 0.0201821984569 0.0
-0.00551052901916 0.0343800446526 0.0
-0.111289790193 0.13859218952 0.0
-0.109711796275 -0.0943507412578 0.0
-0.0756226359242 0.0163205050844 0.0
-0.000721963722633 -0.000699809287227 0.0
-0.000772846657346 0.000824240365355 0.0
0.0674673683129 -0.343909053258 0.0
-0.0620157042947 0.272442639519 0.0
0.588580167699 0.00844285860014 0.0
-0.00839841831226 0.0681795947272 0.0
-0.00878084829782 -0.0485534909994 0.0
-0.0236246929761 0.000771244796046 0.0
0.571388527296 -0.023869578881 0.0
-0.0205365418852 0.15280975441 0.0
-0.00340310197184 -0.012746526235 0.0
-0.0114334789888 0.00231211641093 0.0
-0.0666002323556 -0.350818239336 0.0
-0.011654069434 -0.00246314295925 0.0
0.352899810704 0.0589891278276 0.0
-0.00326325712197 0.0129507125255 0.0
0.0768238600756 -0.133614456192 0.0
-0.0841623645127 0.216246220587 0.0
-0.0177179595538 -0.0251784365479 0.0
-0.023677455786 0.0132060934667 0.0
-0.175775533538 -0.326768924199 0.0
0.0143671031621 0.123086366359 0.0
-0.0348631321949 -0.0118291889884 0.0
-0.0203949021638 0.0384099753425 0.0
-0.108838532676 0.0617638429276 0.0
-0.0802790934102 0.110696493909 0.0
-0.0721027585101 -0.0508723788948 0.0
-0.168979336232 0.0580458633575 0.0
-0.105488649857 0.0791454521759 0.0
-0.174440883078 -0.0248928964506 0.0
-0.215942432932 -0.105286332894 0.0
-0.0705513995315 -0.0299226144592 0.0
-0.16117175397 0.041407638649 0.0
-0.101290920775 0.109871346798 0.0
-0.0963073694539 -0.0567675382822 0.0
-0.175770495497 -0.0593893095454 0.0
-0.0954717865293 -0.0039471714264 0.0
0.444594754105 -0.0979647912355 0.0
-0.0509262043625 0.230477836999 0.0
-0.00169951565668 -0.0039686652113 0.0
-0.00411319482845 0.00166629575537 0.0
-0.00390744332484 -0.00178510714677 0.0
-0.0737706770888 -0.490300063511 0.0
-0.00188609319397 0.00414116235199 0.0
0.167114082199 0.120730228828 0.0
-0.124179491704 0.13326069092 0.0
-0.067791843381 0.055488274076 0.0
-0.0675021396411 0.00878104970609 0.0
0.226477573534 0.0260325793559 0.0
-0.0357089250221 0.121283066787 0.0
-0.0304254182773 -0.0733842427821 0.0
-0.0398716928537 0.00461388393311 0.0
-0.166295618312 -0.160301030945 0.0
-0.105825255637 0.174789693996 0.0
-0.0426911502537 -0.031436115383 0.0
-0.0379799459843 0.0299383395568 0.0
-0.216620103368 -0.183866303821 0.0
-0.0527429101867 -0.0252832012634 0.0
-0.00939391637518 0.0233672470606 0.0
-0.0733683621958 0.14452138392 0.0
-0.0527137520393 -0.0724592532773 0.0
-0.0519387736415 0.0131156951757 0.0
-0.0461327398454 -0.250884889949 0.0
-0.0144804893324 -0.0019415313247 0.0
0.47519801189 0.0300812799315 0.0
-0.003172478156 0.0175766065752 0.0
0.0675563104498 -0.275950260451 0.0
-0.0887111832106 0.247185387051 0.0
-0.00930948924046 -0.0105160182981 0.0
-0.0105423401562 0.0087755737824 0.0
-0.0499643401611 0.112382481791 0.0
-0.0391845659147 0.0625266502112 0.0
-0.146621543646 -0.0463398950153 0.0
-0.0931199024079 0.0120442514966 0.0
-0.133275928084 0.11319007509 0.0
-0.104342274243 -0.208776536084 0.0
-0.0991356435205 0.198761731869 0.0
-0.0271740112373 -0.0242230560417 0.0
-0.0264340380504 0.0221720206429 0.0
-0.0575859750971 0.0470310569318 0.0
-0.085408983844 -0.209173259319 0.0
0.206832955171 0.058719863754 0.0
-0.0360343612967 -0.00408775318504 0.0
-0.0155954884527 0.0524249268332 0.0
-0.168764132262 -0.217682484858 0.0
-0.0510082585389 -0.0105850091122 0.0
-0.127683698347 0.0144487877938 0.0
-0.144872895991 0.00136528617151 0.0
-0.0745031408973 0.0276743432805 0.0
-0.204688206409 -0.254188511582 0.0
-0.0467173873007 -0.0162378752711 0.0
-0.0593238605234 0.133251750994 0.0
-0.0311811929665 0.0463958748188 0.0
-0.125384408029 0.0746187766257 0.0
-0.0122194105739 -0.0767956887219 0.0
-0.0186520829606 -0.000356006452417 0.0
0.644624878993 0.0108224459536 0.0
-0.00355595065348 0.0339099657805 0.0
-0.116406492477 0.115508384442 0.0
-0.1135571517 -0.0724894732397 0.0
-0.129116202312 -0.406650531453 0.0
-0.0400247276857 0.181186475927 0.0
-0.0171761093263 -0.0104813586422 0.0
-0.0118984324832 0.0170426219972 0.0
0.277436472359 0.0446241336091 0.0
-0.0198967643258 0.0774186772595 0.0
-0.044329424562 -0.118408082363 0.0
-0.0381496415497 0.000229561566598 0.0
-0.123934268289 0.039139130549 0.0
-0.0803383434741 0.102870861861 0.0
-0.0519272212971 0.0752844885337 0.0
0.277157219599 -0.013353312085 0.0
-0.0452022994157 0.160482991263 0.0
-0.0169459958923 -0.0413830355747 0.0
-0.0304314986356 0.00715713036102 0.0
-0.157204958269 0.0302339457693 0.0
0.669837990643 -0.00628399894966 0.0
-0.0110258648938 0.107613741456 0.0
-0.0026779998075 -0.0147889308614 0.0
-0.012495384063 0.00167100932854 0.0
-0.0996521236645 0.0576151999917 0.0
0.679442241849 -0.00460391924626 0.0
-0.00876060136469 0.0774686159227 0.0
-0.0029008970583 -0.023001329503 0.0
-0.0156942276768 0.000856930269633 0.0
-0.172426384166 -0.101676591246 0.0
-0.074838142429 -0.0060379604591 0.0
-0.137871441381 0.102826393783 0.0
-0.154185807411 0.0782065812292 0.0
-0.207199729393 -0.123812941423 0.0
-0.071994694775 -0.0169982041554 0.0
0.13288747223 -0.159118155594 0.0
-0.0813197499196 0.233841321157 0.0
-0.0107128122555 -0.0169049442462 0.0
-0.0159904086834 0.0091174030421 0.0
-0.128899625665 -0.0723228832202 0.0
-0.105224315786 0.168244729272 0.0
-0.0479187642208 -0.0438073442234 0.0
-0.0433636764423 0.0263262499876 0.0
-0.0728328026757 -0.423015199624 0.0
-0.00907272518332 -0.00669513678383 0.0
-0.0509509287577 0.206556764739 0.0
-0.00702274392553 0.00909375992665 0.0
-0.191565287407 0.00605211283277 0.0
-0.141623737452 -0.116281524517 0.0
-0.0702033446784 0.000349823087075 0.0
-0.0829258560475 -0.0926321074764 0.0
-0.0780255836371 0.0507563095102 0.0
-0.137859644465 -0.156154509664 0.0
-0.0600349720239 -0.00354356938028 0.0
-0.128124735418 0.102281826646 0.0
-0.169237028256 0.0363942830754 0.0
-0.119397540348 0.0831615384843 0.0
-0.14370761066 0.0889118452046 0.0
-0.070235007551 0.0920477341313 0.0
-0.0810107806938 0.0779687090862 0.0
-0.201926889888 -0.0536656564348 0.0
-0.098342093649 -0.0397456343762 0.0
-0.0885964018349 -0.0268269319712 0.0
0.640141156254 -0.0311769420303 0.0
-0.0198469227735 0.150448292282 0.0
-0.00138316254098 -0.006063870966 0.0
-0.00606152544133 0.00123099872421 0.0
-0.00607504063053 -0.00110698088875 0.0
-0.047658678337 -0.354542974072 0.0
-0.00129172311751 0.00658223249245 0.0
0.434836147622 0.0500632068174 0.0
-0.0643053739137 0.0451941889964 0.0
-0.0718194342658 0.127168366904 0.0
-0.0180624142058 -0.128024094184 0.0
-0.0146603510208 -0.00100400777507 0.0
0.634656406972 0.010385966189 0.0
-0.00246801158065 0.0206545016516 0.0
0.124427815882 0.0497603285738 0.0
-0.0401570715123 0.10717512542 0.0
-0.0629000913863 -0.108797981523 0.0
-0.0483902239446 0.00311615508997 0.0
0.753075226598 0.00418765734529 0.0
-0.0043597701884 0.0514222437965 0.0
-0.00314477897242 -0.0238586253083 0.0
-0.0140943710907 0.000668671137216 0.0
-0.122209958451 -0.332869167272 0.0
-0.0327710719027 -0.00707186819253 0.0
0.0962099516689 0.0900276185722 0.0
-0.0170289314595 0.0430556453813 0.0
0.144461191259 0.0626785510901 0.0
-0.0770085152023 -0.162573774195 0.0
-0.0250470818215 0.0738081667244 0.0
-0.0437525286989 -0.00202415940945 0.0
-0.125569260585 -0.219327354133 0.0
0.0657908334718 0.0855371553576 0.0
-0.0445452326841 -0.00600120297946 0.0
-0.0267974332489 0.0624834966579 0.0
-0.100726130578 0.147904950574 0.0
-0.0563897443779 0.0222503703218 0.0
-0.124426330594 -0.436332117286 0.0
-0.0159965634122 -0.00588266056138 0.0
0.10671128648 0.117418648078 0.0
-0.00730347675438 0.0172656316465 0.0
-0.0828974852463 0.0128636665268 0.0
0.309637145652 -0.0875142721554 0.0
-0.0565076331713 0.21448276753 0.0
-0.00756887823891 -0.0168566733585 0.0
-0.0156345812472 0.00595448578313 0.0
-0.108719653677 0.0468087840683 0.0
-0.11675577582 -0.0269400971598 0.0
-0.0802649424913 0.0372898913013 0.0
0.309631000389 0.0103418457955 0.0
-0.0334469534097 0.132237475943 0.0
-0.0189280954759 -0.0532221661684 0.0
-0.0334892255536 0.00511200602899 0.0
-0.00071475111424 -0.00117913787475 0.0
-0.00131368098063 0.000760855385905 0.0
0.37153904629 -0.154187325605 0.0
-0.00125887773053 -0.000647286913092 0.0
-0.067575705888 0.27034095245 0.0
-0.0503415221275 -0.47418315732 0.0
-0.000691365867448 0.00139532301182 0.0
0.216483245514 0.115310824782 0.0
-0.0583032751132 0.010738510253 0.0
-0.0359180033752 -0.053664964581 0.0
-0.0412574350587 0.0137574681031 0.0
-0.0310949011916 0.0616693487795 0.0
-0.0643398366966 0.113572620965 0.0
-0.169088608628 0.0514904472037 0.0
-0.105384953939 0.093431728438 0.0
-0.132908990773 -0.285691371142 0.0
-0.0265305779176 -0.0059097021061 0.0
0.177021434789 0.0762212561818 0.0
-0.0108929324024 0.0324684578733 0.0
0.0363479352437 -0.0168433443513 0.0
-0.0745091089025 0.168171148719 0.0
-0.0733133110285 -0.0398693478049 0.0
-0.0639633796006 0.0384056902995 0.0
-0.097846191891 0.0315409335362 0.0
0.391691852156 0.0159023379867 0.0
-0.0207599771853 0.098685672514 0.0
-0.0188778581268 -0.0639637531008 0.0
-0.0324857553098 0.00217980569017 0.0
-0.00728809345747 0.0816666885278 0.0
-0.0467460321782 0.08832501657 0.0
-0.123520816094 -0.012300597014 0.0
-0.204636677426 -0.0616265157133 0.0
-0.0584720530958 0.00570680709056 0.0
-0.080794771208 -0.112915639179 0.0
-0.188480424408 0.00524348358662 0.0
-0.16957987596 0.0103034442856 0.0
-0.106385986309 0.0141210863377 0.0
-0.113800798269 -0.00127539571422 0.0
-0.0651210824751 -0.0619997921549 0.0
-0.119443638546 0.140225876131 0.0
-0.20544219611 -0.0194055225159 0.0
0.086645297085 0.0316981932987 0.0
-0.0564782653041 0.136944932577 0.0
-0.0440341940362 -0.0780525047179 0.0
-0.0476360771997 0.00868278835054 0.0
-0.104495909871 0.124037111747 0.0
-0.104345058791 -0.0734030218496 0.0
-0.0913682774052 0.129026584163 0.0
-0.0426622973821 0.0544674242285 0.0
-0.193065632458 -0.180848772449 0.0
-0.0614844027446 -0.0121171738582 0.0
0.759743053667 0.00867045347793 0.0
-0.00194235029562 0.0369782876118 0.0
-0.0042117854009 -0.0333456945457 0.0
-0.0144876354485 0.000424676133344 0.0
-0.0374779755551 -0.0459464344958 0.0
-0.0414192214719 0.0187133422341 0.0
-0.14748064682 0.0647637480739 0.0
-0.0203345346237 -0.0540573483736 0.0
-0.0883536854966 0.179228121882 0.0
-0.186410022789 -0.0125121730687 0.0
-0.130813592528 0.000939656233609 0.0
-0.147752314227 -0.0260922963921 0.0
-0.0690712817286 0.0208177788226 0.0
-0.0711715792741 0.0672058583127 0.0
-0.190743798724 -0.0534387671728 0.0
-0.105560446131 -0.00914355953322 0.0
-0.165959079801 -0.227312443913 0.0
-0.0980865173217 0.179318731234 0.0
-0.034475414149 -0.0245306414335 0.0
-0.0311841008628 0.0296732209477 0.0
-0.189980550435 -0.326442045517 0.0
-0.0467215610003 0.150543633082 0.0
-0.033386344951 -0.015405621736 0.0
-0.0217870725349 0.0332408033215 0.0
-0.0762130074155 0.00894568541475 0.0
0.150850170542 -0.0682665571747 0.0
-0.070463997996 0.197981336588 0.0
-0.0191114686105 -0.0325201514565 0.0
-0.0285344313832 0.0116868071376 0.0
0.377121543857 -0.0223342402016 0.0
-0.0376909661982 0.162762218868 0.0
-0.0110702866621 -0.031172360896 0.0
-0.0249621376996 0.00558553641411 0.0
-0.0827595694354 0.0929915359011 0.0
-0.0599889030317 0.0854147647649 0.0
-0.0526318940893 0.0282747003963 0.0
-0.217736283425 -0.0912346801955 0.0
-0.0813111456261 -0.0236793467192 0.0
-0.155891821167 0.0768125265545 0.0
-0.0936293061789 0.0733104155116 0.0
0.751820612948 -0.00305080754026 0.0
-0.00560924254311 0.075609323332 0.0
-0.00147428031059 -0.0136662733775 0.0
-0.0109694904847 0.000751954738058 0.0
-0.107820706 0.156109137114 0.0
-0.129696211645 0.0862666007361 0.0
-0.0150846600959 -0.123499607386 0.0
-0.0106293790227 -0.000484450592587 0.0
0.692472760928 0.013731680669 0.0
-0.00106662308746 0.0138427069401 0.0
0.467827567119 0.00162913073325 0.0
-0.022094688654 0.118231893299 0.0
-0.0100990847626 -0.0383852513802 0.0
-0.0256387963739 0.00323618264005 0.0
-0.13624701747 0.102019183354 0.0
-0.120708485931 0.110947295047 0.0
-0.109701960988 0.157938909842 0.0
-0.0426234285229 0.0381146333895 0.0
-0.167680908328 -0.0021707170111 0.0
0.246282820797 -0.180401403722 0.0
-0.0779389589731 0.25637646061 0.0
-0.0046781864761 -0.00756785418357 0.0
-0.0075568367517 0.0044464978985 0.0
0.453080403288 0.0206275497518 0.0