# vtk DataFile Version 2.0
2D Simulation Python
ASCII
DATASET UNSTRUCTURED_GRID
FIELD FieldData 1
NODES 1 2 int
3798 7382

POINTS 3798 double
0.0 0.0 0.0
1.0 0.0 0.0
1.0 1.0 0.0
0.0 1.0 0.0
0.01886792452826637 0.0 0.0
0.03773584905653053 0.0 0.0
0.05660377358479097 0.0 0.0
0.07547169811305962 0.0 0.0
0.09433962264133271 0.0 0.0
0.1132075471696058 0.0 0.0
0.1320754716978688 0.0 0.0
0.1509433962261159 0.0 0.0
0.1698113207543628 0.0 0.0
0.1886792452826097 0.0 0.0
0.2075471698108566 0.0 0.0
0.2264150943391035 0.0 0.0
0.2452830188673504 0.0 0.0
0.2641509433955972 0.0 0.0
0.2830188679238441 0.0 0.0
0.301886792452091 0.0 0.0
0.3207547169803379 0.0 0.0
0.3396226415085848 0.0 0.0
0.3584905660368317 0.0 0.0
0.3773584905650785 0.0 0.0
0.3962264150933255 0.0 0.0
0.4150943396215723 0.0 0.0
0.4339622641498192 0.0 0.0
0.4528301886780661 0.0 0.0
0.4716981132063129 0.0 0.0
0.4905660377345599 0.0 0.0
0.5094339622628591 0.0 0.0
0.5283018867912108 0.0 0.0
0.5471698113195625 0.0 0.0
0.5660377358479143 0.0 0.0
0.5849056603762659 0.0 0.0
0.6037735849046176 0.0 0.0
0.6226415094329693 0.0 0.0
0.6415094339613208 0.0 0.0
0.6603773584896723 0.0 0.0
0.6792452830180238 0.0 0.0
0.6981132075463754 0.0 0.0
0.7169811320747269 0.0 0.0
0.7358490566030784 0.0 0.0
0.7547169811314299 0.0 0.0
0.7735849056597816 0.0 0.0
0.7924528301881331 0.0 0.0
0.8113207547164847 0.0 0.0
0.8301886792448361 0.0 0.0
0.8490566037731877 0.0 0.0
0.8679245283015392 0.0 0.0
0.8867924528298908 0.0 0.0
0.9056603773582425 0.0 0.0
0.9245283018865939 0.0 0.0
0.9433962264149454 0.0 0.0
0.962264150943297 0.0 0.0
0.9811320754716486 0.0 0.0
1.0 0.01886792452826637 0.0
1.0 0.03773584905653053 0.0
1.0 0.05660377358479097 0.0
1.0 0.07547169811305962 0.0
1.0 0.09433962264133271 0.0
1.0 0.1132075471696058 0.0
1.0 0.1320754716978688 0.0
1.0 0.1509433962261159 0.0
1.0 0.1698113207543628 0.0
1.0 0.1886792452826097 0.0
1.0 0.2075471698108566 0.0
1.0 0.2264150943391035 0.0
1.0 0.2452830188673504 0.0
1.0 0.2641509433955972 0.0
1.0 0.2830188679238441 0.0
1.0 0.301886792452091 0.0
1.0 0.3207547169803379 0.0
1.0 0.3396226415085848 0.0
1.0 0.3584905660368317 0.0
1.0 0.3773584905650785 0.0
1.0 0.3962264150933255 0.0
1.0 0.4150943396215723 0.0
1.0 0.4339622641498192 0.0
1.0 0.4528301886780661 0.0
1.0 0.4716981132063129 0.0
1.0 0.4905660377345599 0.0
1.0 0.5094339622628591 0.0
1.0 0.5283018867912108 0.0
1.0 0.5471698113195625 0.0
1.0 0.5660377358479143 0.0
1.0 0.5849056603762659 0.0
1.0 0.6037735849046176 0.0
1.0 0.6226415094329693 0.0
1.0 0.6415094339613208 0.0
1.0 0.6603773584896723 0.0
1.0 0.6792452830180238 0.0
1.0 0.6981132075463754 0.0
1.0 0.7169811320747269 0.0
1.0 0.7358490566030784 0.0
1.0 0.7547169811314299 0.0
1.0 0.7735849056597816 0.0
1.0 0.7924528301881331 0.0
1.0 0.8113207547164847 0.0
1.0 0.8301886792448361 0.0
1.0 0.8490566037731877 0.0
1.0 0.8679245283015392 0.0
1.0 0.8867924528298908 0.0
1.0 0.9056603773582425 0.0
1.0 0.9245283018865939 0.0
1.0 0.9433962264149454 0.0
1.0 0.962264150943297 0.0
1.0 0.9811320754716486 0.0
0.9811320754716195 1.0 0.0
0.9622641509432391 1.0 0.0
0.9433962264148587 1.0 0.0
0.9245283018864782 1.0 0.0
0.9056603773580978 1.0 0.0
0.8867924528297173 1.0 0.0
0.8679245283014174 1.0 0.0
0.8490566037732444 1.0 0.0
0.8301886792450734 1.0 0.0
0.8113207547169025 1.0 0.0
0.7924528301887315 1.0 0.0
0.7735849056605606 1.0 0.0
0.7547169811323896 1.0 0.0
0.7358490566042186 1.0 0.0
0.7169811320760476 1.0 0.0
0.6981132075478766 1.0 0.0
0.6792452830197057 1.0 0.0
0.6603773584915346 1.0 0.0
0.6415094339633636 1.0 0.0
0.6226415094351925 1.0 0.0
0.6037735849070215 1.0 0.0
0.5849056603788504 1.0 0.0
0.5660377358506794 1.0 0.0
0.5471698113225083 1.0 0.0
0.5283018867943372 1.0 0.0
0.5094339622661662 1.0 0.0
0.4905660377378905 1.0 0.0
0.4716981132095099 1.0 0.0
0.4528301886811295 1.0 0.0
0.4339622641527489 1.0 0.0
0.4150943396243684 1.0 0.0
0.3962264150959879 1.0 0.0
0.3773584905676074 1.0 0.0
0.358490566039227 1.0 0.0
0.3396226415108468 1.0 0.0
0.3207547169824663 1.0 0.0
0.3018867924540859 1.0 0.0
0.2830188679257056 1.0 0.0
0.2641509433973251 1.0 0.0
0.2452830188689448 1.0 0.0
0.2264150943405645 1.0 0.0
0.2075471698121841 1.0 0.0
0.1886792452838036 1.0 0.0
0.1698113207554234 1.0 0.0
0.150943396227043 1.0 0.0
0.1320754716986625 1.0 0.0
0.1132075471702823 1.0 0.0
0.09433962264190188 1.0 0.0
0.0754716981135215 1.0 0.0
0.05660377358514113 1.0 0.0
0.03773584905676075 1.0 0.0
0.01886792452838049 1.0 0.0
0.0 0.9811320754716195 0.0
0.0 0.9622641509432391 0.0
0.0 0.9433962264148587 0.0
0.0 0.9245283018864782 0.0
0.0 0.9056603773580978 0.0
0.0 0.8867924528297173 0.0
0.0 0.8679245283014174 0.0
0.0 0.8490566037732444 0.0
0.0 0.8301886792450734 0.0
0.0 0.8113207547169025 0.0
0.0 0.7924528301887315 0.0
0.0 0.7735849056605606 0.0
0.0 0.7547169811323896 0.0
0.0 0.7358490566042186 0.0
0.0 0.7169811320760476 0.0
0.0 0.6981132075478766 0.0
0.0 0.6792452830197057 0.0
0.0 0.6603773584915346 0.0
0.0 0.6415094339633636 0.0
0.0 0.6226415094351925 0.0
0.0 0.6037735849070215 0.0
0.0 0.5849056603788504 0.0
0.0 0.5660377358506794 0.0
0.0 0.5471698113225083 0.0
0.0 0.5283018867943372 0.0
0.0 0.5094339622661662 0.0
0.0 0.4905660377378905 0.0
0.0 0.4716981132095099 0.0
0.0 0.4528301886811295 0.0
0.0 0.4339622641527489 0.0
0.0 0.4150943396243684 0.0
0.0 0.3962264150959879 0.0
0.0 0.3773584905676074 0.0
0.0 0.358490566039227 0.0
0.0 0.3396226415108468 0.0
0.0 0.3207547169824663 0.0
0.0 0.3018867924540859 0.0
0.0 0.2830188679257056 0.0
0.0 0.2641509433973251 0.0
0.0 0.2452830188689448 0.0
0.0 0.2264150943405645 0.0
0.0 0.2075471698121841 0.0
0.0 0.1886792452838036 0.0
0.0 0.1698113207554234 0.0
0.0 0.150943396227043 0.0
0.0 0.1320754716986625 0.0
0.0 0.1132075471702823 0.0
0.0 0.09433962264190188 0.0
0.0 0.0754716981135215 0.0
0.0 0.05660377358514113 0.0
0.0 0.03773584905676075 0.0
0.0 0.01886792452838049 0.0
0.49961422419268997 0.4984293794066726 0.0
0.7093511500970902 0.706792936500378 0.0
0.29287482782244045 0.7110496278611782 0.0
0.7065208514432915 0.2921137893028175 0.0
0.2917146567058879 0.2951459957249887 0.0
0.5010883512796402 0.783530677658598 0.0
0.2164159732426224 0.5012876322837192 0.0
0.7820505253934122 0.4994927647991782 0.0
0.4969563419356505 0.21663804071479492 0.0
0.8269192007901067 0.8287013252031155 0.0
0.1712682973217082 0.8268730922835856 0.0
0.8299941553097447 0.17180608262880254 0.0
0.17180615988223974 0.17000622072452293 0.0
0.5640959313975822 0.6420224840910225 0.0
0.36076803388570655 0.5671667288006801 0.0
0.641160245161879 0.4320186669377829 0.0
0.4354935082651592 0.36378759861759746 0.0
0.6410454186381067 0.8479832937118897 0.0
0.1518368310809157 0.6410829539811169 0.0
0.8477907051244511 0.3598243790179788 0.0
0.35938579904680457 0.15130729784326102 0.0
0.8497305928919907 0.6399401683101269 0.0
0.3617952267412937 0.8474454291453152 0.0
0.6436051449793575 0.15189469658234833 0.0
0.15079737625026685 0.3588783576988489 0.0
0.6832039587940572 0.5823618751624478 0.0
0.4454396775914624 0.6627381531764 0.0
0.33424594078221964 0.4385872006022409 0.0
0.5773189844856303 0.3195812160927133 0.0
0.5368082180804761 0.8869865896668006 0.0
0.11301341973883329 0.5368082072162796 0.0
0.8863497125425446 0.46278650800142523 0.0
0.46231798559604276 0.1137357048419064 0.0
0.735504344602733 0.8878298811845817 0.0
0.11217246241749894 0.7355045289688809 0.0
0.8876386118329569 0.26464529586215935 0.0
0.26447675721717134 0.11218714573944835 0.0
0.8918893682153743 0.7430319146751548 0.0
0.7378676821853629 0.10938784471235846 0.0
0.2618554236513495 0.8907466135047526 0.0
0.10927139946373736 0.2618885660485004 0.0
0.6036356850091371 0.740958324467786 0.0
0.2594197395873493 0.6024781400358834 0.0
0.7471835282093033 0.3970113006814754 0.0
0.39635295506120277 0.25856270415268773 0.0
0.5973835830959042 0.5282120591728078 0.0
0.5269880475515504 0.40324375384926064 0.0
0.900344051349824 0.09737126935472232 0.0
0.09737116846728401 0.09965601878423913 0.0
0.9027736024298996 0.9004379740924425 0.0
0.09965486244215357 0.9026299600545967 0.0
0.3830054844266893 0.7484876862569074 0.0
0.25074672726321157 0.3828059459383084 0.0
0.9036934196956306 0.5634343341860331 0.0
0.436167023944368 0.903809418557912 0.0
0.5634650142808684 0.09627038765249357 0.0
0.09611428176536896 0.43622888244072316 0.0
0.7383691909253696 0.7977530090605311 0.0
0.20213608094646243 0.7381864461382426 0.0
0.7965379729869333 0.25833485688790847 0.0
0.25825176979143294 0.20343822649683996 0.0
0.8016496201203362 0.7232057683389532 0.0
0.27776554876540255 0.7985644202275013 0.0
0.7230025466734626 0.19888476423555862 0.0
0.20134253349952064 0.2778412830843111 0.0
0.48914355287031674 0.5909586444150075 0.0
0.4113298235007088 0.49483643887222295 0.0
0.7553604068177817 0.6323161440656005 0.0
0.6323326401346647 0.2446343261447706 0.0
0.3558016573651024 0.6535168196958461 0.0
0.6947272998992697 0.49553252027219197 0.0
0.34695271761644664 0.35520182412877976 0.0
0.49374473330545476 0.3082796821038452 0.0
0.8187154539118972 0.9148861354006228 0.0
0.08511383208187207 0.8187154148724425 0.0
0.9150328940734902 0.18133025458140606 0.0
0.18128457425270267 0.0851129709589244 0.0
0.8187403987114168 0.08420346742597412 0.0
0.9157746719419576 0.8186373542270347 0.0
0.08420340483892619 0.18125955209024192 0.0
0.18126035834340148 0.9157847355643594 0.0
0.6491759294498078 0.6582605894876106 0.0
0.518075563238964 0.700155561243168 0.0
0.2994944160935228 0.5182519107636043 0.0
0.6529572976260253 0.35254842454839763 0.0
0.6097401473872117 0.9217208439447089 0.0
0.07827850601264716 0.6097398708442259 0.0
0.9217267277120186 0.3902548071573767 0.0
0.39024121399465406 0.07825838690395835 0.0
0.9257398577009572 0.6657069734842804 0.0
0.6657516430505073 0.07518432263878908 0.0
0.3341866530930919 0.9246109018771522 0.0
0.07542270790545244 0.3342243925275289 0.0
0.8225798016625723 0.5644120390192462 0.0
0.43501894509773303 0.8272239480204406 0.0
0.5644015723185061 0.17743228884395235 0.0
0.1728552698143025 0.4351788286843611 0.0
0.5668992511560398 0.812632221934239 0.0
[...]
POINT_DATA 3798
VECTORS vector double
0.0 0.0 0.0
0.0 0.0 0.0
0.0 0.0 0.0
0.0 0.0 0.0
0.0 0.0 0.0
0.0 0.0 0.0
0.0 0.0 0.0
0.0 0.0 0.0
0.0 0.0 0.0
0.0 0.0 0.0
0.0 0.0 0.0
0.0 0.0 0.0
0.0 0.0 0.0
0.0 0.0 0.0
0.0 0.0 0.0
0.0 0.0 0.0
0.0 0.0 0.0
0.0 0.0 0.0
0.0 0.0 0.0
0.0 0.0 0.0
0.0 0.0 0.0
0.0 0.0 0.0
0.0 0.0 0.0
0.0 0.0 0.0
0.0 0.0 0.0
0.0 0.0 0.0
0.0 0.0 0.0
0.0 0.0 0.0
0.0 0.0 0.0
0.0 0.0 0.0
0.0 0.0 0.0
0.0 0.0 0.0
0.0 0.0 0.0
0.0 0.0 0.0
0.0 0.0 0.0
0.0 0.0 0.0
0.0 0.0 0.0
0.0 0.0 0.0
0.0 0.0 0.0
0.0 0.0 0.0
0.0 0.0 0.0
0.0 0.0 0.0
0.0 0.0 0.0
0.0 0.0 0.0
0.0 0.0 0.0
0.0 0.0 0.0
0.0 0.0 0.0
0.0 0.0 0.0
0.0 0.0 0.0
0.0 0.0 0.0
0.0 0.0 0.0
0.0 0.0 0.0
0.0 0.0 0.0
0.0 0.0 0.0
0.0 0.0 0.0
0.0 0.0 0.0
0.0 0.0 0.0
0.0 0.0 0.0
0.0 0.0 0.0
0.0 0.0 0.0
0.0 0.0 0.0
0.0 0.0 0.0
0.0 0.0 0.0
0.0 0.0 0.0
0.0 0.0 0.0
0.0 0.0 0.0
0.0 0.0 0.0
0.0 0.0 0.0
0.0 0.0 0.0
0.0 0.0 0.0
0.0 0.0 0.0
0.0 0.0 0.0
0.0 0.0 0.0
0.0 0.0 0.0
0.0 0.0 0.0
0.0 0.0 0.0
0.0 0.0 0.0
0.0 0.0 0.0
0.0 0.0 0.0
0.0 0.0 0.0
0.0 0.0 0.0
0.0 0.0 0.0
0.0 0.0 0.0
0.0 0.0 0.0
0.0 0.0 0.0
0.0 0.0 0.0
0.0 0.0 0.0
0.0 0.0 0.0
0.0 0.0 0.0
0.0 0.0 0.0
0.0 0.0 0.0
0.0 0.0 0.0
0.0 0.0 0.0
0.0 0.0 0.0
0.0 0.0 0.0
0.0 0.0 0.0
0.0 0.0 0.0
0.0 0.0 0.0
0.0 0.0 0.0
0.0 0.0 0.0
0.0 0.0 0.0
0.0 0.0 0.0
0.0 0.0 0.0
0.0 0.0 0.0
0.0 0.0 0.0
0.0 0.0 0.0
0.0 0.0 0.0
0.0 0.0 0.0
1.0 0.0 0.0
1.0 0.0 0.0
1.0 0.0 0.0
1.0 0.0 0.0
1.0 0.0 0.0
1.0 0.0 0.0
1.0 0.0 0.0
1.0 0.0 0.0
1.0 0.0 0.0
1.0 0.0 0.0
1.0 0.0 0.0
1.0 0.0 0.0
1.0 0.0 0.0
1.0 0.0 0.0
1.0 0.0 0.0
1.0 0.0 0.0
1.0 0.0 0.0
1.0 0.0 0.0
1.0 0.0 0.0
1.0 0.0 0.0
1.0 0.0 0.0
1.0 0.0 0.0
1.0 0.0 0.0
1.0 0.0 0.0
1.0 0.0 0.0
1.0 0.0 0.0
1.0 0.0 0.0
1.0 0.0 0.0
1.0 0.0 0.0
1.0 0.0 0.0
1.0 0.0 0.0
1.0 0.0 0.0
1.0 0.0 0.0
1.0 0.0 0.0
1.0 0.0 0.0
1.0 0.0 0.0
1.0 0.0 0.0
1.0 0.0 0.0
1.0 0.0 0.0
1.0 0.0 0.0
1.0 0.0 0.0
1.0 0.0 0.0
1.0 0.0 0.0
1.0 0.0 0.0
1.0 0.0 0.0
1.0 0.0 0.0
1.0 0.0 0.0
1.0 0.0 0.0
1.0 0.0 0.0
1.0 0.0 0.0
1.0 0.0 0.0
1.0 0.0 0.0
0.0 0.0 0.0
0.0 0.0 0.0
0.0 0.0 0.0
0.0 0.0 0.0
0.0 0.0 0.0
0.0 0.0 0.0
0.0 0.0 0.0
0.0 0.0 0.0
0.0 0.0 0.0
0.0 0.0 0.0
0.0 0.0 0.0
0.0 0.0 0.0
0.0 0.0 0.0
0.0 0.0 0.0
0.0 0.0 0.0
0.0 0.0 0.0
0.0 0.0 0.0
0.0 0.0 0.0
0.0 0.0 0.0
0.0 0.0 0.0
0.0 0.0 0.0
0.0 0.0 0.0
0.0 0.0 0.0
0.0 0.0 0.0
0.0 0.0 0.0
0.0 0.0 0.0
0.0 0.0 0.0
0.0 0.0 0.0
0.0 0.0 0.0
0.0 0.0 0.0
0.0 0.0 0.0
0.0 0.0 0.0
0.0 0.0 0.0
0.0 0.0 0.0
0.0 0.0 0.0
0.0 0.0 0.0
0.0 0.0 0.0
0.0 0.0 0.0
0.0 0.0 0.0
0.0 0.0 0.0
0.0 0.0 0.0
0.0 0.0 0.0
0.0 0.0 0.0
0.0 0.0 0.0
0.0 0.0 0.0
0.0 0.0 0.0
0.0 0.0 0.0
0.0 0.0 0.0
0.0 0.0 0.0
0.0 0.0 0.0
0.0 0.0 0.0
0.0 0.0 0.0
-0.112783439561 0.0147747637191 0.0
-0.20009957378 -0.0857489928013 0.0
-0.121269588898 0.130256609457 0.0
-0.0480684636338 -0.030386194273 0.0
-0.0423202291619 0.0297235080078 0.0
-0.0911500671276 0.0576005937066 0.0
-0.0522158791452 0.0832715147232 0.0
-0.0871422256198 -0.100688120202 0.0
-0.0528508651223 0.00142503719557 0.0
-0.0814565767427 -0.244748882556 0.0
-0.0988176818938 0.210347393583 0.0
-0.0158296073475 -0.0150455802353 0.0
-0.0153959091785 0.0138025823522 0.0
-0.166275255897 0.0120173326863 0.0
-0.108048169425 0.0727631134471 0.0
-0.0894421570326 -0.0381977787107 0.0
-0.0726240527932 0.0183970647437 0.0
0.0916471815787 0.00857527921142 0.0
-0.0548921560671 0.137303981943 0.0
-0.02621351335 -0.0517952404233 0.0
-0.0358795428829 0.00782459498674 0.0
-0.125338362116 -0.212326847336 0.0
0.00271487843465 0.082791483065 0.0
-0.0366927732182 -0.00739457540069 0.0
-0.0211296289983 0.0457378534023 0.0
-0.165308947455 -0.0715021476803 0.0
-0.146768513228 0.064840119973 0.0
-0.0721781430924 0.0506412000475 0.0
-0.0674390502077 -0.0118130492126 0.0
0.226580687105 0.0232099547359 0.0
-0.0230741089422 0.0863609764643 0.0
-0.0258679746825 -0.0770834166335 0.0
-0.034803503988 0.00168975421946 0.0
0.239059778962 -0.0386043384735 0.0
-0.0537944663647 0.179753543081 0.0
-0.0107411811446 -0.0257838478812 0.0
-0.0213171114073 0.00641562391598 0.0
-0.139062801407 -0.346445752447 0.0
-0.0219210736728 -0.00635545471239 0.0
0.0728419604161 0.103322343804 0.0
-0.00966496612305 0.023392432408 0.0
-0.148057418885 0.0145094192593 0.0
-0.0873005149567 0.109198299398 0.0
-0.0577658337373 -0.0588189839293 0.0
-0.0525121920057 0.01461300155 0.0
-0.132948628719 -0.0230815342268 0.0
-0.088801286442 -0.000910228274883 0.0
-0.00412781035017 -0.00411510984088 0.0
-0.00403820887597 0.00393158115028 0.0
0.0206586366958 -0.351858908704 0.0
-0.0794761959729 0.252798575354 0.0
-0.125268399216 0.0974034487867 0.0
-0.0455051503003 0.0497965989938 0.0
-0.0406739327239 -0.1208745254 0.0
0.277719725859 0.0302631164417 0.0
-0.0313441760772 -0.00145091775817 0.0
-0.0131049912665 0.0532680630496 0.0
-0.0906630145066 -0.090973805426 0.0
-0.100836711318 0.17458491264 0.0
-0.0278784381898 -0.0298544280507 0.0
-0.029636222222 0.0178169637117 0.0
-0.205035475718 -0.224226570316 0.0
-0.102045916158 0.143833791982 0.0
-0.0341156590755 -0.0172774830146 0.0
-0.0262980464029 0.031058911549 0.0
-0.134589849374 0.0333934529241 0.0
-0.0991437089519 0.0435608073631 0.0
-0.187333868756 -0.140162212045 0.0
-0.0516558285019 -0.0146853680579 0.0
-0.126184039379 0.0942631936211 0.0
-0.110786764799 -0.0675400420621 0.0
-0.0600380828821 0.0331450040355 0.0
-0.0662951063453 0.00376597452247 0.0
0.289771281839 -0.0974820677445 0.0
-0.0632557311034 0.225317579523 0.0
-0.00504478344855 -0.0112893123006 0.0
-0.0102600092526 0.00427213417846 0.0
-0.0105556205557 -0.0047212044351 0.0
-0.125149086072 -0.441228371112 0.0
-0.00522371448521 0.010626260097 0.0
0.0864134417465 0.137960319947 0.0
-0.185071504343 -0.03735174099 0.0
-0.155396707696 0.0448187029641 0.0
-0.0791467993881 0.075911529933 0.0
-0.0695088575551 -0.0303030262216 0.0
0.445871084691 0.00573094582994 0.0
-0.0178599565941 0.0940956663843 0.0
-0.00928651868196 -0.0408884618077 0.0
-0.0244751995083 0.00204339647616 0.0
-0.0549898114328 -0.194781828279 0.0
-0.0216601329772 -0.00259663857992 0.0
0.329488137332 0.0413513036548 0.0
-0.00630793544793 0.0282553590434 0.0
-0.0910456389735 -0.147010005733 0.0
-0.0229710356834 0.0671144767348 0.0
-0.0430598507221 -0.0036018289476 0.0
-0.0316001695289 0.0655793109845 0.0
-0.0308871148971 0.0347305021782 0.0
-0.0539427450059 0.107255137213 0.0
-0.0462046308866 -0.0757358374441 0.0
-0.0456312483801 0.0059603511478 0.0
-0.0912914559332 0.0218847960107 0.0
-0.040920316751 -0.0463801770973 0.0
-0.040601599855 0.0161846451859 0.0
-0.103455650741 -0.0190123636976 0.0
-0.0910986618249 0.14103553343 0.0
-0.108709022332 -0.0155627254234 0.0
0.48416011613 -0.00322996506752 0.0
-0.0211665692994 0.118254739342 0.0
-0.00602893793707 -0.0266804940184 0.0
-0.0194598094285 0.00261508741333 0.0
-0.136543670055 -0.11352051287 0.0
-0.0562909565586 -0.00647582915541 0.0
-0.128665785765 0.058451820159 0.0
-0.136735778972 0.0735048027733 0.0
-0.0568252361809 0.0638624073137 0.0
-0.158083232201 -0.025094200223 0.0
-0.085725041857 -0.0183178857487 0.0
-0.0761702203774 0.033111881802 0.0
-0.149366138675 0.00124917143338 0.0
-0.122071989672 0.0385481120798 0.0
0.483214729014 0.00986770196051 0.0
-0.00815814469729 0.0532228588103 0.0
-0.0129017522895 -0.0674338173339 0.0
-0.0245023519167 -1.96959468119e-05 0.0
0.0306439224156 0.0483538906703 0.0
-0.0320631435542 0.0804714621965 0.0
-0.0585476203372 -0.109446561133 0.0
-0.0435488700179 0.000626681807826 0.0
0.0708623742635 -0.0261458932179 0.0
-0.071196779533 0.16589383399 0.0
-0.0217963858166 -0.0376194862141 0.0
-0.0309279732032 0.0105793108043 0.0
-0.181856286428 -0.299968765116 0.0
-0.0771829048244 0.163793484264 0.0
-0.0236557885809 -0.0136802429774 0.0
-0.0170635996485 0.0222008515629 0.0
-0.120217229204 0.122192678275 0.0
-0.0371734313302 0.0383368754759 0.0
-0.0514822531387 0.0239143659131 0.0
-0.0240268043675 -0.114667737562 0.0
-0.0206294206273 -0.00118265849229 0.0
0.483013458728 0.0164470695674 0.0
-0.00494492318413 0.0314270227271 0.0
-0.110353402763 0.114443324148 0.0
-0.0834295804034 -0.0747600219714 0.0
-0.0625335369361 0.0128916569698 0.0
-0.000875736957052 -0.000837249061279 0.0
-0.000819169465983 0.00087694802692 0.0
0.0615362232703 -0.341547436118 0.0
-0.0611748284197 0.27321859885 0.0
0.55426877232 0.00648465848949 0.0
-0.00804483308519 0.0626667213312 0.0
-0.00699529101119 -0.0437501357036 0.0
-0.0215419751198 0.000666168252191 0.0
0.542916749347 -0.0188940066384 0.0
-0.021785371816 0.14921175093 0.0
-0.00331800549196 -0.0129360243583 0.0
-0.0109598312177 0.00211386093425 0.0
-0.0675946660911 -0.312401476956 0.0
-0.0114779911561 -0.00220550234552 0.0
0.349380717768 0.0565787878851 0.0
-0.00296227399467 0.012322151889 0.0
0.0247249051467 -0.113842219855 0.0
-0.0902806364904 0.204198082228 0.0
-0.0162780454134 -0.0230440394844 0.0
-0.021470759888 0.0117619303084 0.0
-0.166072892767 -0.272121570675 0.0
-0.00680501272815 0.109807675855 0.0
-0.0313008299889 -0.00985935702818 0.0
-0.0178992687787 0.0343014453478 0.0
-0.133631216068 0.0409912941306 0.0
-0.0736116951284 0.0923606378351 0.0
-0.0579593858291 -0.0407518044796 0.0
-0.1559441645 0.0359077410599 0.0
-0.091734656557 0.0616517404539 0.0
-0.182728278017 -0.0256111024047 0.0
-0.192213001185 -0.0878276710881 0.0
-0.0577569392693 -0.0237740189663 0.0
-0.165429843258 0.0228992271689 0.0
-0.0930505448431 0.0889630505889 0.0
-0.07518312534 -0.0450198433244 0.0
-0.137195974325 -0.0503021876409 0.0
-0.0768886476548 -0.00362269862734 0.0
0.430061105967 -0.095203425608 0.0
-0.051806678111 0.230821373 0.0
-0.00176291389003 -0.0043341019814 0.0
-0.00415791913177 0.00161682953054 0.0
-0.00420286512391 -0.00180340773084 0.0
-0.0817765602711 -0.471676382675 0.0
-0.00182966599868 0.0041596480832 0.0
0.167657431261 0.120267419859 0.0
-0.130964860611 0.107067052372 0.0
-0.0576628600923 0.0451595507495 0.0
-0.0564570777253 0.00706563101351 0.0
0.169976304114 0.0199843046814 0.0
-0.03443211472 0.109206744329 0.0
-0.0244259505211 -0.0632242423345 0.0
-0.0353272372992 0.00388323841077 0.0
-0.18891574888 -0.133057909625 0.0
-0.115785508181 0.154145549225 0.0
-0.0367260226781 -0.0262213697054 0.0
-0.0328554161547 0.0256714591185 0.0
-0.208433271021 -0.149913079449 0.0
-0.0447461432617 -0.0205130613645 0.0
-0.0583075546095 0.0163631894466 0.0
-0.0714456805584 0.125955271972 0.0
-0.0423784971622 -0.0598480472921 0.0
-0.044500084838 0.010828398865 0.0
-0.0435263251186 -0.21391995469 0.0
-0.0138490961213 -0.00166251800184 0.0
0.467165857375 0.0274500493485 0.0
-0.00283235968895 0.0164396522299 0.0
0.0328759669285 -0.258699602088 0.0
-0.0935739253307 0.242749501284 0.0
-0.00914317773902 -0.010259691465 0.0
-0.00997276326465 0.00824272908394 0.0
-0.0777538955888 0.0913079206595 0.0
-0.0342332947091 0.0538137711451 0.0
-0.113178612306 -0.0387616239067 0.0
-0.075775569921 0.00865064065647 0.0
-0.138894063974 0.0858744595697 0.0
-0.142144296779 -0.179143614641 0.0
-0.10890588556 0.183162059497 0.0
-0.0244902082206 -0.0212161089182 0.0
-0.0234227243737 0.019612771394 0.0
-0.0489472347258 0.0388828825739 0.0
-0.0695588411819 -0.168814517409 0.0
0.177094602371 0.0487838449983 0.0
-0.0323106446963 -0.00332878371016 0.0
-0.0139027245213 0.0470242802585 0.0
-0.137948190682 -0.172973089355 0.0
-0.0438039739466 -0.00848118210377 0.0
-0.102817467111 0.00851372992096 0.0
-0.116077813457 -0.00395350229309 0.0
-0.0618559345511 0.0219622759996 0.0
-0.186579678326 -0.206308586863 0.0
-0.0405129290656 -0.0132194632163 0.0
-0.0819308257861 0.114447734147 0.0
-0.0271515404615 0.040397666891 0.0
-0.108967874715 0.0554730974086 0.0
-0.00941858600435 -0.0646278030069 0.0
-0.0171458852964 -0.000295605173626 0.0
0.624574634395 0.00865906697588 0.0
-0.00327002975162 0.0310515558273 0.0
-0.109514786602 0.0918993937001 0.0
-0.0873684351378 -0.0575033370893 0.0
-0.152435459859 -0.369320699301 0.0
-0.0490848130706 0.173997580019 0.0
-0.0163994238853 -0.0095489035866 0.0
-0.0108277072432 0.0158030852221 0.0
0.234706507804 0.035838904347 0.0
-0.0183758084041 0.0694088929877 0.0
-0.0336874666999 -0.0977492109643 0.0
-0.0339686674299 0.000219622459883 0.0
-0.102318555558 0.0275053432918 0.0
-0.105300225883 0.0789572357316 0.0
-0.0456016423133 0.0636107564297 0.0
0.219057615666 -0.00880732864914 0.0
-0.0461407340784 0.148748475357 0.0
-0.01484441277 -0.0376994148935 0.0
-0.0274881814023 0.0061514556242 0.0
-0.130855251101 0.0168782357011 0.0
0.64274587532 -0.0031367447357 0.0
-0.0117206214717 0.103629600031 0.0
-0.00254440933445 -0.0148545977236 0.0
-0.0118242466888 0.00149042295895 0.0
-0.084016127942 0.0443373761178 0.0
0.646522016414 -0.00444089551467 0.0
-0.00870001949878 0.0728245633772 0.0
-0.00260476753311 -0.0222869690924 0.0
-0.0146459224558 0.000730287712005 0.0
-0.133099610878 -0.081524171294 0.0
-0.0613921807017 -0.00487245886771 0.0
-0.130474698104 0.0766743326236 0.0
-0.142181538382 0.0537201204285 0.0
-0.169840365267 -0.0996508701735 0.0
-0.0592408819254 -0.0134397808077 0.0
0.0865486063463 -0.142588551373 0.0
-0.0861893039537 0.226267803606 0.0
-0.0102053480711 -0.0161406231986 0.0
-0.0149047358246 0.00834707927966 0.0
-0.15963565133 -0.0596466749194 0.0
-0.109326965441 0.146371543207 0.0
-0.0402034220653 -0.0363067197677 0.0
-0.0372767124556 0.0221511018452 0.0
-0.096991629516 -0.40066267898 0.0
-0.0090735849105 -0.0064664905345 0.0
-0.0550998651562 0.20335664887 0.0
-0.00662816243386 0.00870658769331 0.0
-0.182274623626 -0.00468501797547 0.0
-0.10742151095 -0.0918416548465 0.0
-0.0582603498602 0.000263931466574 0.0
-0.0638097612374 -0.0742587737306 0.0
-0.0658186045795 0.0403020841583 0.0
-0.105705300795 -0.123133698969 0.0
-0.0508193705863 -0.00278464257613 0.0
-0.117958617037 0.0783729563934 0.0
-0.146727994427 0.0187821974525 0.0
-0.135498527327 0.0583812639813 0.0
-0.148162145996 0.0619410646174 0.0
-0.0623714568005 0.0762499425633 0.0
-0.0704059053611 0.062977257073 0.0
-0.169378187363 -0.0483877254822 0.0
-0.0776160378403 -0.0316664586366 0.0
-0.0710150539808 -0.0212984847341 0.0
0.626651099194 -0.0285370424452 0.0
-0.0206215500806 0.149570245235 0.0
-0.00140574756459 -0.00647366116774 0.0
-0.00596432016189 0.00115471839336 0.0
-0.00626645989638 -0.00103714328765 0.0
-0.0493274423794 -0.326760100405 0.0
-0.00119852684658 0.00645240999745 0.0
0.434443513832 0.0492466477895 0.0
-0.1008794873 0.0309398255037 0.0
-0.0674365849991 0.108754343273 0.0
-0.0153621666402 -0.106256071064 0.0
-0.0137348029284 -0.000839728383318 0.0
0.623078593595 0.00858068097285 0.0
-0.00220606936607 0.019090007442 0.0
0.0732098412827 0.0372737708549 0.0
-0.0375434853971 0.0946050706101 0.0
-0.0478471029519 -0.0892069602361 0.0
-0.0420819202567 0.0026063443307 0.0
0.72864784056 0.00394974119621 0.0
-0.00427962903814 0.047884830533 0.0
-0.00271030445883 -0.0226972086514 0.0
-0.0130622191338 0.000581660249902 0.0
-0.113523848911 -0.280061380266 0.0
-0.0295818205712 -0.00584542589457 0.0
0.0719877739891 0.0787490563343 0.0
-0.0150146943288 0.0385795640328 0.0
0.104576527147 0.0497623259724 0.0
-0.0592096909464 -0.130767713435 0.0
-0.0226512738027 0.0653720869772 0.0
-0.0385031998162 -0.0016153041152 0.0
-0.101852813232 -0.174924435884 0.0
0.0325860629581 0.0700994098148 0.0
-0.0391046254742 -0.00483639746864 0.0
-0.0237256602746 0.0550830769688 0.0
-0.0995765785346 0.125446514924 0.0
-0.0477767643279 0.018323778392 0.0
-0.129960347989 -0.391174559388 0.0
-0.0154169271776 -0.00527598211383 0.0
0.0977806649996 0.112381385684 0.0
-0.00663581316207 0.0161969127469 0.0
-0.0679225959852 0.00977297079258 0.0
0.267676033498 -0.0763980706047 0.0
-0.0596043207834 0.208167092585 0.0
-0.00726157064862 -0.0164904700174 0.0
-0.0147169012212 0.00542531673419 0.0
-0.0903987852125 0.0351030534869 0.0
-0.0916909433122 -0.0226952596643 0.0
-0.0667709951008 0.0293696076257 0.0
0.252933419938 0.00955536510198 0.0
-0.0332447979783 0.121108750528 0.0
-0.0159432564508 -0.0476246592463 0.0
-0.0300816603241 0.00434773713522 0.0
-0.000803649563494 -0.00141054286045 0.0
-0.00139287369849 0.000776417966075 0.0
0.36605009682 -0.153311147909 0.0
-0.00148901597313 -0.000709881647584 0.0
-0.0674279396315 0.271463729731 0.0
-0.0545721119626 -0.464892511006 0.0
-0.000702837827348 0.00147678955612 0.0
0.217758021 0.115550372601 0.0
-0.0494149241807 0.00876069393825 0.0
-0.0301844555917 -0.045926231823 0.0
-0.0360386655608 0.0116164451528 0.0
-0.0733331147453 0.0435282242488 0.0
-0.0596755171723 0.0971598475707 0.0
-0.163658477575 0.0301022034961 0.0
-0.0940662108161 0.0738608055491 0.0
-0.116957874435 -0.233225060922 0.0
-0.0244858497521 -0.00497146159005 0.0
0.159301637981 0.0683086002215 0.0
-0.0096349765153 0.029598433728 0.0
-0.0193569563582 -0.0122773849798 0.0
-0.0757892679087 0.150453921994 0.0
-0.059360499587 -0.0318027000388 0.0
-0.0538293721648 0.0313594918066 0.0
-0.0804730423172 0.0237609121455 0.0
0.342988846391 0.0116891798497 0.0
-0.0199396352005 0.0899319532714 0.0
-0.0151570699001 -0.0563816410484 0.0
-0.0292370283961 0.00185764078792 0.0
-0.0466921155334 0.0614676571997 0.0
-0.0419878115344 0.0760608584322 0.0
-0.0974387511088 -0.0112923379119 0.0
-0.199342893386 -0.0541738051368 0.0
-0.0496594325212 0.00466614600127 0.0
-0.0613483252347 -0.0908497431116 0.0
-0.161068026048 -0.0054181181127 0.0
-0.170540879709 -4.79215824825e-05 0.0
-0.0861474821077 0.00962617950964 0.0
-0.14178632339 -0.00481510617453 0.0
-0.052244912991 -0.0502741121661 0.0
-0.122204856679 0.115046533692 0.0
-0.182269007575 -0.0237163832302 0.0
0.0305162613713 0.0243574476152 0.0
-0.0550213223585 0.121234936667 0.0
-0.0351108294592 -0.0655905099867 0.0
-0.0413903607456 0.00722407500423 0.0
-0.0983617607064 0.101604383227 0.0
-0.080182744232 -0.0581948230959 0.0
-0.112120447428 0.105625607226 0.0
-0.0368665217579 0.0464237274539 0.0
-0.157855826525 -0.143322875193 0.0
-0.0518006638812 -0.00962284785179 0.0
0.739724203512 0.00834137930211 0.0
-0.00184872595068 0.0341096717326 0.0
-0.00338408328824 -0.0302256527856 0.0
-0.0133372728971 0.000387114625437 0.0
-0.0318812264527 -0.0392130527357 0.0
-0.0360389908837 0.0158878035393 0.0
-0.129046321656 0.0442764529028 0.0
-0.0718258382914 -0.0429592198853 0.0
-0.092246031353 0.160573178882 0.0
-0.152327395065 -0.0170676903226 0.0
-0.104478850014 -0.00255224225281 0.0
-0.115514782819 -0.0237703552165 0.0
-0.0575453259271 0.0166778801982 0.0
-0.0610613092593 0.0547368600126 0.0
-0.152885909968 -0.0473278401856 0.0
-0.0841892236308 -0.00814177448156 0.0
-0.190449078546 -0.191852336128 0.0
-0.11120670924 0.161310267825 0.0
-0.030412146384 -0.0208903901993 0.0
-0.0272021459452 0.025880207502 0.0
-0.19430155598 -0.276498658825 0.0
-0.0647231658199 0.136499606049 0.0
-0.0299985683471 -0.0130413331305 0.0
-0.0191496112442 0.0296032013254 0.0
-0.0629387424723 0.00703674015964 0.0
0.0944730177143 -0.0540470306023 0.0
-0.0747761334686 0.184877446336 0.0
-0.0171762124251 -0.0295555670788 0.0
-0.0256974828179 0.0102228745841 0.0
0.326941750254 -0.0159401206248 0.0
-0.0394753481856 0.153275220949 0.0
-0.00999586955762 -0.029307623411 0.0
-0.0228656419256 0.00487224854548 0.0
-0.110596262262 0.0686294498278 0.0
-0.0531406851722 0.0718248151171 0.0
-0.0447189999832 0.0234362177932 0.0
-0.186318254454 -0.0762649511678 0.0
-0.0658788051621 -0.0187428213481 0.0
-0.148570841557 0.0512371960514 0.0
-0.0806044630347 0.0578883289318 0.0
0.728638720932 -0.0018713697857 0.0
-0.00582486897161 0.0722948471117 0.0
-0.0013852353408 -0.01373792499 0.0
-0.010355848191 0.000660830318375 0.0
-0.110148828577 0.133015093443 0.0
-0.115885818901 0.064459363325 0.0
-0.0132723184049 -0.103644622086 0.0
-0.010110240109 -0.000388166456221 0.0
0.685353451028 0.0128483825447 0.0
-0.000939170127545 0.0129163171 0.0
0.419709549588 0.00250614025679 0.0
-0.0222387169524 0.10998991417 0.0
-0.0087825478122 -0.0357062631249 0.0
-0.0234338447098 0.00277931447055 0.0
-0.143527389944 0.0747339840639 0.0
-0.134318719407 0.0841528002561 0.0
-0.121457225537 0.135338044262 0.0
-0.0365774759955 0.0323499775345 0.0
-0.135409820613 -0.00818810528222 0.0
0.220673258865 -0.171972991913 0.0
-0.0803039351604 0.254605740732 0.0
-0.00472516820013 -0.0077671580311 0.0