# vtk DataFile Version 2.0
2D Simulation Python
ASCII
DATASET UNSTRUCTURED_GRID
FIELD FieldData 1
NODES 1 2 int
3798 7382

POINTS 3798 double
0.0 0.0 0.0
1.0 0.0 0.0
1.0 1.0 0.0
0.0 1.0 0.0
0.01886792452826637 0.0 0.0
0.03773584905653053 0.0 0.0
0.05660377358479097 0.0 0.0
0.07547169811305962 0.0 0.0
0.09433962264133271 0.0 0.0
0.1132075471696058 0.0 0.0
0.1320754716978688 0.0 0.0
0.1509433962261159 0.0 0.0
0.1698113207543628 0.0 0.0
0.1886792452826097 0.0 0.0
0.2075471698108566 0.0 0.0
0.2264150943391035 0.0 0.0
0.2452830188673504 0.0 0.0
0.2641509433955972 0.0 0.0
0.2830188679238441 0.0 0.0
0.301886792452091 0.0 0.0
0.3207547169803379 0.0 0.0
0.3396226415085848 0.0 0.0
0.3584905660368317 0.0 0.0
0.3773584905650785 0.0 0.0
0.3962264150933255 0.0 0.0
0.4150943396215723 0.0 0.0
0.4339622641498192 0.0 0.0
0.4528301886780661 0.0 0.0
0.4716981132063129 0.0 0.0
0.4905660377345599 0.0 0.0
0.5094339622628591 0.0 0.0
0.5283018867912108 0.0 0.0
0.5471698113195625 0.0 0.0
0.5660377358479143 0.0 0.0
0.5849056603762659 0.0 0.0
0.6037735849046176 0.0 0.0
0.6226415094329693 0.0 0.0
0.6415094339613208 0.0 0.0
0.6603773584896723 0.0 0.0
0.6792452830180238 0.0 0.0
0.6981132075463754 0.0 0.0
0.7169811320747269 0.0 0.0
0.7358490566030784 0.0 0.0
0.7547169811314299 0.0 0.0
0.7735849056597816 0.0 0.0
0.7924528301881331 0.0 0.0
0.8113207547164847 0.0 0.0
0.8301886792448361 0.0 0.0
0.8490566037731877 0.0 0.0
0.8679245283015392 0.0 0.0
0.8867924528298908 0.0 0.0
0.9056603773582425 0.0 0.0
0.9245283018865939 0.0 0.0
0.9433962264149454 0.0 0.0
0.962264150943297 0.0 0.0
0.9811320754716486 0.0 0.0
1.0 0.01886792452826637 0.0
1.0 0.03773584905653053 0.0
1.0 0.05660377358479097 0.0
1.0 0.07547169811305962 0.0
1.0 0.09433962264133271 0.0
1.0 0.1132075471696058 0.0
1.0 0.1320754716978688 0.0
1.0 0.1509433962261159 0.0
1.0 0.1698113207543628 0.0
1.0 0.1886792452826097 0.0
1.0 0.2075471698108566 0.0
1.0 0.2264150943391035 0.0
1.0 0.2452830188673504 0.0
1.0 0.2641509433955972 0.0
1.0 0.2830188679238441 0.0
1.0 0.301886792452091 0.0
1.0 0.3207547169803379 0.0
1.0 0.3396226415085848 0.0
1.0 0.3584905660368317 0.0
1.0 0.3773584905650785 0.0
1.0 0.3962264150933255 0.0
1.0 0.4150943396215723 0.0
1.0 0.4339622641498192 0.0
1.0 0.4528301886780661 0.0
1.0 0.4716981132063129 0.0
1.0 0.4905660377345599 0.0
1.0 0.5094339622628591 0.0
1.0 0.5283018867912108 0.0
1.0 0.5471698113195625 0.0
1.0 0.5660377358479143 0.0
1.0 0.5849056603762659 0.0
1.0 0.6037735849046176 0.0
1.0 0.6226415094329693 0.0
1.0 0.6415094339613208 0.0
1.0 0.6603773584896723 0.0
1.0 0.6792452830180238 0.0
1.0 0.6981132075463754 0.0
1.0 0.7169811320747269 0.0
1.0 0.7358490566030784 0.0
1.0 0.7547169811314299 0.0
1.0 0.7735849056597816 0.0
1.0 0.7924528301881331 0.0
1.0 0.8113207547164847 0.0
1.0 0.8301886792448361 0.0
1.0 0.8490566037731877 0.0
1.0 0.8679245283015392 0.0
1.0 0.8867924528298908 0.0
1.0 0.9056603773582425 0.0
1.0 0.9245283018865939 0.0
1.0 0.9433962264149454 0.0
1.0 0.962264150943297 0.0
1.0 0.9811320754716486 0.0
0.9811320754716195 1.0 0.0
0.9622641509432391 1.0 0.0
0.9433962264148587 1.0 0.0
0.9245283018864782 1.0 0.0
0.9056603773580978 1.0 0.0
0.8867924528297173 1.0 0.0
0.8679245283014174 1.0 0.0
0.8490566037732444 1.0 0.0
0.8301886792450734 1.0 0.0
0.8113207547169025 1.0 0.0
0.7924528301887315 1.0 0.0
0.7735849056605606 1.0 0.0
0.7547169811323896 1.0 0.0
0.7358490566042186 1.0 0.0
0.7169811320760476 1.0 0.0
0.6981132075478766 1.0 0.0
0.6792452830197057 1.0 0.0
0.6603773584915346 1.0 0.0
0.6415094339633636 1.0 0.0
0.6226415094351925 1.0 0.0
0.6037735849070215 1.0 0.0
0.5849056603788504 1.0 0.0
0.5660377358506794 1.0 0.0
0.5471698113225083 1.0 0.0
0.5283018867943372 1.0 0.0
0.5094339622661662 1.0 0.0
0.4905660377378905 1.0 0.0
0.4716981132095099 1.0 0.0
0.4528301886811295 1.0 0.0
0.4339622641527489 1.0 0.0
0.4150943396243684 1.0 0.0
0.3962264150959879 1.0 0.0
0.3773584905676074 1.0 0.0
0.358490566039227 1.0 0.0
0.3396226415108468 1.0 0.0
0.3207547169824663 1.0 0.0
0.3018867924540859 1.0 0.0
0.2830188679257056 1.0 0.0
0.2641509433973251 1.0 0.0
0.2452830188689448 1.0 0.0
0.2264150943405645 1.0 0.0
0.2075471698121841 1.0 0.0
0.1886792452838036 1.0 0.0
0.1698113207554234 1.0 0.0
0.150943396227043 1.0 0.0
0.1320754716986625 1.0 0.0
0.1132075471702823 1.0 0.0
0.09433962264190188 1.0 0.0
0.0754716981135215 1.0 0.0
0.05660377358514113 1.0 0.0
0.03773584905676075 1.0 0.0
0.01886792452838049 1.0 0.0
0.0 0.9811320754716195 0.0
0.0 0.9622641509432391 0.0
0.0 0.9433962264148587 0.0
0.0 0.9245283018864782 0.0
0.0 0.9056603773580978 0.0
0.0 0.8867924528297173 0.0
0.0 0.8679245283014174 0.0
0.0 0.8490566037732444 0.0
0.0 0.8301886792450734 0.0
0.0 0.8113207547169025 0.0
0.0 0.7924528301887315 0.0
0.0 0.7735849056605606 0.0
0.0 0.7547169811323896 0.0
0.0 0.7358490566042186 0.0
0.0 0.7169811320760476 0.0
0.0 0.6981132075478766 0.0
0.0 0.6792452830197057 0.0
0.0 0.6603773584915346 0.0
0.0 0.6415094339633636 0.0
0.0 0.6226415094351925 0.0
0.0 0.6037735849070215 0.0
0.0 0.5849056603788504 0.0
0.0 0.5660377358506794 0.0
0.0 0.5471698113225083 0.0
0.0 0.5283018867943372 0.0
0.0 0.5094339622661662 0.0
0.0 0.4905660377378905 0.0
0.0 0.4716981132095099 0.0
0.0 0.4528301886811295 0.0
0.0 0.4339622641527489 0.0
0.0 0.4150943396243684 0.0
0.0 0.3962264150959879 0.0
0.0 0.3773584905676074 0.0
0.0 0.358490566039227 0.0
0.0 0.3396226415108468 0.0
0.0 0.3207547169824663 0.0
0.0 0.3018867924540859 0.0
0.0 0.2830188679257056 0.0
0.0 0.2641509433973251 0.0
0.0 0.2452830188689448 0.0
0.0 0.2264150943405645 0.0
0.0 0.2075471698121841 0.0
0.0 0.1886792452838036 0.0
0.0 0.1698113207554234 0.0
0.0 0.150943396227043 0.0
0.0 0.1320754716986625 0.0
0.0 0.1132075471702823 0.0
0.0 0.09433962264190188 0.0
0.0 0.0754716981135215 0.0
0.0 0.05660377358514113 0.0
0.0 0.03773584905676075 0.0
0.0 0.01886792452838049 0.0
0.49961422419268997 0.4984293794066726 0.0
0.7093511500970902 0.706792936500378 0.0
0.29287482782244045 0.7110496278611782 0.0
0.7065208514432915 0.2921137893028175 0.0
0.2917146567058879 0.2951459957249887 0.0
0.5010883512796402 0.783530677658598 0.0
0.2164159732426224 0.5012876322837192 0.0
0.7820505253934122 0.4994927647991782 0.0
0.4969563419356505 0.21663804071479492 0.0
0.8269192007901067 0.8287013252031155 0.0
0.1712682973217082 0.8268730922835856 0.0
0.8299941553097447 0.17180608262880254 0.0
0.17180615988223974 0.17000622072452293 0.0
0.5640959313975822 0.6420224840910225 0.0
0.36076803388570655 0.5671667288006801 0.0
0.641160245161879 0.4320186669377829 0.0
0.4354935082651592 0.36378759861759746 0.0
0.6410454186381067 0.8479832937118897 0.0
0.1518368310809157 0.6410829539811169 0.0
0.8477907051244511 0.3598243790179788 0.0
0.35938579904680457 0.15130729784326102 0.0
0.8497305928919907 0.6399401683101269 0.0
0.3617952267412937 0.8474454291453152 0.0
0.6436051449793575 0.15189469658234833 0.0
0.15079737625026685 0.3588783576988489 0.0
0.6832039587940572 0.5823618751624478 0.0
0.4454396775914624 0.6627381531764 0.0
0.33424594078221964 0.4385872006022409 0.0
0.5773189844856303 0.3195812160927133 0.0
0.5368082180804761 0.8869865896668006 0.0
0.11301341973883329 0.5368082072162796 0.0
0.8863497125425446 0.46278650800142523 0.0
0.46231798559604276 0.1137357048419064 0.0
0.735504344602733 0.8878298811845817 0.0
0.11217246241749894 0.7355045289688809 0.0
0.8876386118329569 0.26464529586215935 0.0
0.26447675721717134 0.11218714573944835 0.0
0.8918893682153743 0.7430319146751548 0.0
0.7378676821853629 0.10938784471235846 0.0
0.2618554236513495 0.8907466135047526 0.0
0.10927139946373736 0.2618885660485004 0.0
0.6036356850091371 0.740958324467786 0.0
0.2594197395873493 0.6024781400358834 0.0
0.7471835282093033 0.3970113006814754 0.0
0.39635295506120277 0.25856270415268773 0.0
0.5973835830959042 0.5282120591728078 0.0
0.5269880475515504 0.40324375384926064 0.0
0.900344051349824 0.09737126935472232 0.0
0.09737116846728401 0.09965601878423913 0.0
0.9027736024298996 0.9004379740924425 0.0
0.09965486244215357 0.9026299600545967 0.0
0.3830054844266893 0.7484876862569074 0.0
0.25074672726321157 0.3828059459383084 0.0
0.9036934196956306 0.5634343341860331 0.0
0.436167023944368 0.903809418557912 0.0
0.5634650142808684 0.09627038765249357 0.0
0.09611428176536896 0.43622888244072316 0.0
0.7383691909253696 0.7977530090605311 0.0
0.20213608094646243 0.7381864461382426 0.0
0.7965379729869333 0.25833485688790847 0.0
0.25825176979143294 0.20343822649683996 0.0
0.8016496201203362 0.7232057683389532 0.0
0.27776554876540255 0.7985644202275013 0.0
0.7230025466734626 0.19888476423555862 0.0
0.20134253349952064 0.2778412830843111 0.0
0.48914355287031674 0.5909586444150075 0.0
0.4113298235007088 0.49483643887222295 0.0
0.7553604068177817 0.6323161440656005 0.0
0.6323326401346647 0.2446343261447706 0.0
0.3558016573651024 0.6535168196958461 0.0
0.6947272998992697 0.49553252027219197 0.0
0.34695271761644664 0.35520182412877976 0.0
0.49374473330545476 0.3082796821038452 0.0
0.8187154539118972 0.9148861354006228 0.0
0.08511383208187207 0.8187154148724425 0.0
0.9150328940734902 0.18133025458140606 0.0
0.18128457425270267 0.0851129709589244 0.0
0.8187403987114168 0.08420346742597412 0.0
0.9157746719419576 0.8186373542270347 0.0
0.08420340483892619 0.18125955209024192 0.0
0.18126035834340148 0.9157847355643594 0.0
0.6491759294498078 0.6582605894876106 0.0
0.518075563238964 0.700155561243168 0.0
0.2994944160935228 0.5182519107636043 0.0
0.6529572976260253 0.35254842454839763 0.0
0.6097401473872117 0.9217208439447089 0.0
0.07827850601264716 0.6097398708442259 0.0
0.9217267277120186 0.3902548071573767 0.0
0.39024121399465406 0.07825838690395835 0.0
0.9257398577009572 0.6657069734842804 0.0
0.6657516430505073 0.07518432263878908 0.0
0.3341866530930919 0.9246109018771522 0.0
0.07542270790545244 0.3342243925275289 0.0
0.8225798016625723 0.5644120390192462 0.0
0.43501894509773303 0.8272239480204406 0.0
0.5644015723185061 0.17743228884395235 0.0
0.1728552698143025 0.4351788286843611 0.0
0.5668992511560398 0.812632221934239 0.0
[...]
POINT_DATA 3798
VECTORS vector double
0.0 0.0 0.0
0.0 0.0 0.0
0.0 0.0 0.0
0.0 0.0 0.0
0.0 0.0 0.0
0.0 0.0 0.0
0.0 0.0 0.0
0.0 0.0 0.0
0.0 0.0 0.0
0.0 0.0 0.0
0.0 0.0 0.0
0.0 0.0 0.0
0.0 0.0 0.0
0.0 0.0 0.0
0.0 0.0 0.0
0.0 0.0 0.0
0.0 0.0 0.0
0.0 0.0 0.0
0.0 0.0 0.0
0.0 0.0 0.0
0.0 0.0 0.0
0.0 0.0 0.0
0.0 0.0 0.0
0.0 0.0 0.0
0.0 0.0 0.0
0.0 0.0 0.0
0.0 0.0 0.0
0.0 0.0 0.0
0.0 0.0 0.0
0.0 0.0 0.0
0.0 0.0 0.0
0.0 0.0 0.0
0.0 0.0 0.0
0.0 0.0 0.0
0.0 0.0 0.0
0.0 0.0 0.0
0.0 0.0 0.0
0.0 0.0 0.0
0.0 0.0 0.0
0.0 0.0 0.0
0.0 0.0 0.0
0.0 0.0 0.0
0.0 0.0 0.0
0.0 0.0 0.0
0.0 0.0 0.0
0.0 0.0 0.0
0.0 0.0 0.0
0.0 0.0 0.0
0.0 0.0 0.0
0.0 0.0 0.0
0.0 0.0 0.0
0.0 0.0 0.0
0.0 0.0 0.0
0.0 0.0 0.0
0.0 0.0 0.0
0.0 0.0 0.0
0.0 0.0 0.0
0.0 0.0 0.0
0.0 0.0 0.0
0.0 0.0 0.0
0.0 0.0 0.0
0.0 0.0 0.0
0.0 0.0 0.0
0.0 0.0 0.0
0.0 0.0 0.0
0.0 0.0 0.0
0.0 0.0 0.0
0.0 0.0 0.0
0.0 0.0 0.0
0.0 0.0 0.0
0.0 0.0 0.0
0.0 0.0 0.0
0.0 0.0 0.0
0.0 0.0 0.0
0.0 0.0 0.0
0.0 0.0 0.0
0.0 0.0 0.0
0.0 0.0 0.0
0.0 0.0 0.0
0.0 0.0 0.0
0.0 0.0 0.0
0.0 0.0 0.0
0.0 0.0 0.0
0.0 0.0 0.0
0.0 0.0 0.0
0.0 0.0 0.0
0.0 0.0 0.0
0.0 0.0 0.0
0.0 0.0 0.0
0.0 0.0 0.0
0.0 0.0 0.0
0.0 0.0 0.0
0.0 0.0 0.0
0.0 0.0 0.0
0.0 0.0 0.0
0.0 0.0 0.0
0.0 0.0 0.0
0.0 0.0 0.0
0.0 0.0 0.0
0.0 0.0 0.0
0.0 0.0 0.0
0.0 0.0 0.0
0.0 0.0 0.0
0.0 0.0 0.0
0.0 0.0 0.0
0.0 0.0 0.0
0.0 0.0 0.0
0.0 0.0 0.0
1.0 0.0 0.0
1.0 0.0 0.0
1.0 0.0 0.0
1.0 0.0 0.0
1.0 0.0 0.0
1.0 0.0 0.0
1.0 0.0 0.0
1.0 0.0 0.0
1.0 0.0 0.0
1.0 0.0 0.0
1.0 0.0 0.0
1.0 0.0 0.0
1.0 0.0 0.0
1.0 0.0 0.0
1.0 0.0 0.0
1.0 0.0 0.0
1.0 0.0 0.0
1.0 0.0 0.0
1.0 0.0 0.0
1.0 0.0 0.0
1.0 0.0 0.0
1.0 0.0 0.0
1.0 0.0 0.0
1.0 0.0 0.0
1.0 0.0 0.0
1.0 0.0 0.0
1.0 0.0 0.0
1.0 0.0 0.0
1.0 0.0 0.0
1.0 0.0 0.0
1.0 0.0 0.0
1.0 0.0 0.0
1.0 0.0 0.0
1.0 0.0 0.0
1.0 0.0 0.0
1.0 0.0 0.0
1.0 0.0 0.0
1.0 0.0 0.0
1.0 0.0 0.0
1.0 0.0 0.0
1.0 0.0 0.0
1.0 0.0 0.0
1.0 0.0 0.0
1.0 0.0 0.0
1.0 0.0 0.0
1.0 0.0 0.0
1.0 0.0 0.0
1.0 0.0 0.0
1.0 0.0 0.0
1.0 0.0 0.0
1.0 0.0 0.0
1.0 0.0 0.0
0.0 0.0 0.0
0.0 0.0 0.0
0.0 0.0 0.0
0.0 0.0 0.0
0.0 0.0 0.0
0.0 0.0 0.0
0.0 0.0 0.0
0.0 0.0 0.0
0.0 0.0 0.0
0.0 0.0 0.0
0.0 0.0 0.0
0.0 0.0 0.0
0.0 0.0 0.0
0.0 0.0 0.0
0.0 0.0 0.0
0.0 0.0 0.0
0.0 0.0 0.0
0.0 0.0 0.0
0.0 0.0 0.0
0.0 0.0 0.0
0.0 0.0 0.0
0.0 0.0 0.0
0.0 0.0 0.0
0.0 0.0 0.0
0.0 0.0 0.0
0.0 0.0 0.0
0.0 0.0 0.0
0.0 0.0 0.0
0.0 0.0 0.0
0.0 0.0 0.0
0.0 0.0 0.0
0.0 0.0 0.0
0.0 0.0 0.0
0.0 0.0 0.0
0.0 0.0 0.0
0.0 0.0 0.0
0.0 0.0 0.0
0.0 0.0 0.0
0.0 0.0 0.0
0.0 0.0 0.0
0.0 0.0 0.0
0.0 0.0 0.0
0.0 0.0 0.0
0.0 0.0 0.0
0.0 0.0 0.0
0.0 0.0 0.0
0.0 0.0 0.0
0.0 0.0 0.0
0.0 0.0 0.0
0.0 0.0 0.0
0.0 0.0 0.0
0.0 0.0 0.0
-0.210586966974 0.0526383759008 0.0
-0.115056717132 -0.163848175255 0.0
-0.0621145383822 0.226287994163 0.0
-0.109372979595 -0.0724365308742 0.0
-0.0919997974791 0.0640959131589 0.0
0.0686456093916 0.105477280145 0.0
-0.0774494998045 0.165559074676 0.0
-0.182857588983 -0.228564606059 0.0
-0.110227082066 0.000276777534697 0.0
0.033202633562 -0.308736265388 0.0
-0.0619185298739 0.244038127703 0.0
-0.0206688974182 -0.0209951808862 0.0
-0.0263582539303 0.0228319864092 0.0
-0.150865792604 0.0365546293141 0.0
-0.1351054238 0.17158927834 0.0
-0.216614925987 -0.093505467434 0.0
-0.164401955547 0.0478871261898 0.0
0.262159353457 -0.00784434504912 0.0
-0.0432829769404 0.212500592481 0.0
-0.0580740912015 -0.0975998548905 0.0
-0.0654708885175 0.0155999898617 0.0
-0.162162342592 -0.386282600243 0.0
0.113083112178 0.130559847535 0.0
-0.0633370638819 -0.0183293048195 0.0
-0.0405772329843 0.0858824131179 0.0
-0.233664742111 -0.154014490838 0.0
-0.100589330451 0.151284386034 0.0
-0.138490079459 0.120345267508 0.0
-0.162241404943 -0.0324915220409 0.0
0.377196278723 0.0366561762187 0.0
-0.0277716755699 0.146594305418 0.0
-0.0586760829241 -0.151400542339 0.0
-0.0611416403553 0.00251517779002 0.0
0.37108762744 -0.0688399952493 0.0
-0.0355428938275 0.22314735172 0.0
-0.0175141238145 -0.0342798420854 0.0
-0.0344268742037 0.0113663740445 0.0
-0.115435515263 -0.487689208861 0.0
-0.0278398614864 -0.0116938715893 0.0
0.11607380272 0.128049263255 0.0
-0.0180749390642 0.0391277014398 0.0
-0.0107612612978 0.0144546233078 0.0
-0.0866749604061 0.212029627027 0.0
-0.147437159834 -0.139403757637 0.0
-0.114952391012 0.0328719170198 0.0
-0.2358511237 -0.0413845558314 0.0
-0.202329384478 0.00308591574888 0.0
-0.00235583760361 -0.00270326974816 0.0
-0.00521323631234 0.00501193882042 0.0
0.0691479832129 -0.372387141729 0.0
-0.0782434811066 0.253124064635 0.0
-0.0202240747238 0.182597335926 0.0
-0.0897639310894 0.106286545625 0.0
-0.0723374734626 -0.23635433401 0.0
0.379015006565 0.0530562397055 0.0
-0.05070888988 -0.00452253782357 0.0
-0.0215936153049 0.0949313279712 0.0
0.0620835506119 -0.155835606046 0.0
-0.0568176812603 0.247377999177 0.0
-0.0533410539249 -0.0552929946918 0.0
-0.0568411340229 0.0343678030523 0.0
-0.138107390271 -0.351416475753 0.0
-0.021250821867 0.208727485611 0.0
-0.0605204549527 -0.0365963197012 0.0
-0.0526132362384 0.0594192224175 0.0
-0.171312418533 0.0977115989456 0.0
-0.173477630961 0.114999973178 0.0
-0.211472842606 -0.274151392497 0.0
-0.10969996061 -0.0386575102524 0.0
-0.0947533169711 0.199490689652 0.0
-0.231596866201 -0.15971748339 0.0
-0.128877211412 0.0786685147427 0.0
-0.154737985729 0.00799066791021 0.0
0.380497566402 -0.11729228154 0.0
-0.0505703871948 0.237614363185 0.0
-0.0053034479017 -0.00963357751021 0.0
-0.0144369293873 0.00650233612215 0.0
-0.00917507579156 -0.00590380993669 0.0
-0.0828270947692 -0.526539364451 0.0
-0.00858173324129 0.0153001145846 0.0
0.0959547393536 0.147950453086 0.0
-0.161322358509 -0.0780003751058 0.0
-0.0661083252145 0.0980303412866 0.0
-0.117369068123 0.169329986066 0.0
-0.166817610843 -0.078141837957 0.0
0.563021904249 0.00310409358955 0.0
-0.015657545064 0.140129453432 0.0
-0.019929186448 -0.06478596099 0.0
-0.0393804773562 0.0037620806193 0.0
-0.0684002819308 -0.327712024456 0.0
-0.02952197771 -0.00585006376407 0.0
0.381890236989 0.0581065531838 0.0
-0.01211641133 0.0484544024175 0.0
-0.172649713606 -0.305453023863 0.0
0.125703215451 0.117963516903 0.0
-0.0877815718743 -0.0113696690956 0.0
-0.054791457041 0.126744844423 0.0
0.150720224648 0.0505709232546 0.0
-0.0603630905857 0.193831244505 0.0
-0.109210968004 -0.164322511383 0.0
-0.0925739246123 0.0116741972733 0.0
-0.188327015317 0.0618417431698 0.0
-0.0941796304706 -0.100345799481 0.0
-0.0829415715264 0.0339443131888 0.0
0.0594677904511 -0.0558519470378 0.0
-0.0649712724553 0.234743851719 0.0
-0.227884146555 -0.0290416862666 0.0
0.586348555434 -0.0145287087841 0.0
-0.0145666304323 0.155466946941 0.0
-0.0108951776144 -0.0345353289387 0.0
-0.0300521117095 0.0047417259378 0.0
-0.226771339528 -0.248194106051 0.0
-0.125515558072 -0.0198269002582 0.0
-0.144647780179 0.148596016247 0.0
-0.0273502481378 0.150700950582 0.0
-0.103999958682 0.138503790137 0.0
-0.21404552988 -0.0463106993287 0.0
-0.201076937852 -0.0453906581255 0.0
-0.159401289375 0.0845819513826 0.0
-0.20837945794 0.0208593864626 0.0
-0.181721302626 0.10814967298 0.0
0.575070365337 0.0187294222379 0.0
-0.0112494054344 0.0902721809015 0.0
-0.026425234656 -0.125603195732 0.0
-0.038606270162 -0.000566645870408 0.0
0.202671263358 0.0826539124231 0.0
-0.0476083638933 0.148794906886 0.0
-0.126116233309 -0.233482039772 0.0
-0.0836198109053 -0.000929143279969 0.0
0.233509689133 -0.0644375590085 0.0
-0.0463162552575 0.234197621127 0.0
-0.04286110291 -0.064721918107 0.0
-0.0553899945217 0.0204167381054 0.0
-0.0968591397926 -0.408806825108 0.0
-0.0210878827622 0.205479323565 0.0
-0.0342429540652 -0.0240323222282 0.0
-0.0320874887928 0.038637335978 0.0
-0.0299329021221 0.205718613869 0.0
-0.0762009530872 0.0792811659642 0.0
-0.116467551006 0.0549513677287 0.0
-0.0358940620824 -0.209593907589 0.0
-0.0292778535725 -0.00301509079438 0.0
0.539395630374 0.0278424536008 0.0
-0.00882354947112 0.0545127934937 0.0
-0.0847572832919 0.220262292285 0.0
-0.191434970885 -0.177770948345 0.0
-0.139477918797 0.0304882383313 0.0
9.76043331679e-05 -1.08483084291e-05 0.0
-0.0007850818114 0.000848291009993 0.0
0.0823966425105 -0.34816186811 0.0
-0.0645810515972 0.270285245688 0.0
0.645801559418 0.0091560612935 0.0
-0.00874320445226 0.0995498257294 0.0
-0.0152014637696 -0.07336162931 0.0
-0.0337355594221 0.00103476679923 0.0
0.608774990532 -0.0299734115099 0.0
-0.0150722643905 0.164769754058 0.0
-0.00405265599195 -0.01123048791 0.0
-0.0152831702304 0.00337797380391 0.0
-0.0589182707544 -0.418559155411 0.0
-0.0108555205898 -0.00345082922768 0.0
0.358101907132 0.0643144235813 0.0
-0.00528616360623 0.0184837088146 0.0
0.165283513774 -0.165709835926 0.0
-0.0565690419119 0.251974467106 0.0
-0.0253237267349 -0.0337822936158 0.0
-0.0369783271412 0.0207048564073 0.0
-0.157103091929 -0.434500904035 0.0
0.0721971378081 0.153853510407 0.0
-0.0501500408342 -0.0214538124749 0.0
-0.0347988879339 0.0623440744824 0.0
0.0056177164022 0.0757595794079 0.0
-0.0933361842772 0.188290584437 0.0
-0.139349755724 -0.0994637932012 0.0
-0.136681906548 0.0935404814141 0.0
-0.144747547125 0.149075575064 0.0
-0.0825722040907 -0.0603783385932 0.0
-0.188252911744 -0.173721246631 0.0
-0.134522039476 -0.0615267553598 0.0
-0.0767404424581 0.0471721271779 0.0
-0.110299115086 0.191392203036 0.0
-0.183404203361 -0.112898737455 0.0
-0.243813430345 -0.110901994545 0.0
-0.1785602129 -0.00922576667865 0.0
0.468868107648 -0.100881875389 0.0
-0.0488642603256 0.228502061414 0.0
-0.0011197169209 -0.00176649516263 0.0
-0.00483365971148 0.00218864298616 0.0
-0.00191531581933 -0.00147335596283 0.0
-0.0583916776601 -0.518110564549 0.0
-0.00251968066684 0.0049937409939 0.0
0.163614677111 0.121360378541 0.0
-0.0617444402688 0.205829224235 0.0
-0.117061136837 0.103962748961 0.0
-0.12028486316 0.0146395015265 0.0
0.338033450465 0.0237980554919 0.0
-0.0343784315521 0.177840128969 0.0
-0.0570783233643 -0.120928375046 0.0
-0.0637460968443 0.00728284163815 0.0
-0.0741366466234 -0.223293107785 0.0
-0.0522069872667 0.234467667322 0.0
-0.073042721337 -0.0559069987116 0.0
-0.066543481655 0.0512243854571 0.0
-0.166844522747 -0.268061816622 0.0
-0.092789258475 -0.0491918163567 0.0
0.118327557857 0.00858544733846 0.0
-0.0643925887721 0.218446515095 0.0
-0.104139432333 -0.130370766862 0.0
-0.0912399065247 0.0228596647231 0.0
-0.0447037401458 -0.326423940085 0.0
-0.0156925048267 -0.00318206061987 0.0
0.489469775375 0.035935124895 0.0
-0.00538749500334 0.0264267390146 0.0
0.119817882499 -0.296550522152 0.0
-0.0753291072359 0.257465570667 0.0
-0.00919202905652 -0.0105387815087 0.0
-0.0149710118363 0.0124079866161 0.0
0.0479722202323 0.157497648936 0.0
-0.0650419660629 0.107488818448 0.0
-0.238478383528 -0.0892788198753 0.0
-0.18158576047 0.0244069274759 0.0
-0.0646311823871 0.179603202181 0.0
-0.00511623775441 -0.259060518598 0.0
-0.054867047294 0.24210063556 0.0
-0.0402772630751 -0.0371762867539 0.0
-0.0440959465933 0.035735819988 0.0
-0.102396989473 0.0862333972927 0.0
-0.10491486793 -0.318858503696 0.0
0.275904188401 0.0787315667696 0.0
-0.0522912502395 -0.00882438613631 0.0
-0.0252738444345 0.0850890945036 0.0
-0.198702235129 -0.337822881464 0.0
-0.0883359200637 -0.0229413008689 0.0
-0.210245856595 0.0331480547329 0.0
-0.225755147475 0.00789864400485 0.0
-0.138660950696 0.0532566151797 0.0
-0.186869781144 -0.361781539197 0.0
-0.0764573741292 -0.0318424097318 0.0
0.020701283179 0.177998539493 0.0
-0.0543743851505 0.0784223833129 0.0
-0.160124908584 0.141618335763 0.0
-0.0179682716428 -0.11907253377 0.0
-0.0252924500795 -0.00105021060105 0.0
0.682533453035 0.0151636965053 0.0
-0.00528880970936 0.0532856557702 0.0
-0.10888846588 0.198219199297 0.0
-0.211654197103 -0.140224393858 0.0
-0.0770740677062 -0.459942939265 0.0
-0.0161988416398 0.19791619682 0.0
-0.0190896181304 -0.0138502483642 0.0
-0.0188749848223 0.0252210153908 0.0
0.367956858839 0.0560445822795 0.0
-0.0260840623507 0.122166795979 0.0
-0.0723917662251 -0.195437825424 0.0
-0.0585829733745 -0.000959691389952 0.0
-0.195322663959 0.0794061769064 0.0
0.0308383423865 0.147677771897 0.0
-0.0809558453862 0.13216651193 0.0
0.37491863132 -0.0307032508473 0.0
-0.0328256454509 0.206859794069 0.0
-0.0298577494618 -0.0595029852868 0.0
-0.0470024955214 0.0116501120443 0.0
-0.203249152249 0.0604634370168 0.0
0.702908547469 -0.0107265252227 0.0
-0.00720326362875 0.12357885417 0.0
-0.00374754679057 -0.0146662165582 0.0
-0.0168623620708 0.00252595745587 0.0
-0.160046589317 0.112906887192 0.0
0.731870557004 -0.00618945428145 0.0
-0.00741705620706 0.100353923442 0.0
-0.00523724948207 -0.0284782515241 0.0
-0.0222399993182 0.00132347920546 0.0
-0.240514915463 -0.184164305876 0.0
-0.152029490781 -0.0151274202801 0.0
-0.107845895545 0.176103453769 0.0
-0.13310485978 0.135422092632 0.0
-0.229408713069 -0.210560009272 0.0
-0.137076496955 -0.0371790189332 0.0
0.210149380419 -0.180757837241 0.0
-0.0617988591526 0.254350278668 0.0
-0.0129254873294 -0.019035883638 0.0
-0.0237694544913 0.0135224110099 0.0
-0.0184563246236 -0.120105863615 0.0
-0.0634104148581 0.238316184696 0.0
-0.0890590434664 -0.0791000907758 0.0
-0.0796256218473 0.046297847764 0.0
-0.0289488696499 -0.451702787821 0.0
-0.00777101462254 -0.00691834011701 0.0
-0.0423892278692 0.213097496348 0.0
-0.0102233163439 0.0124213633394 0.0
-0.134966327019 -0.0077652086318 0.0
-0.218948223959 -0.211950776526 0.0
-0.132117203284 -0.00244410970747 0.0
-0.153357093689 -0.172421348112 0.0
-0.139893072555 0.0981718464659 0.0
-0.195631973471 -0.269093117746 0.0
-0.106188428502 -0.0101834109088 0.0
-0.124108439748 0.180207193644 0.0
-0.173213984565 0.0607395897939 0.0
-0.0103877453141 0.11795161266 0.0
-0.0695123348691 0.138736186209 0.0
-0.0995833647276 0.162816996151 0.0
-0.125064402749 0.144133240421 0.0
-0.210038617239 -0.101920757483 0.0
-0.198610887259 -0.0805119083874 0.0
-0.173255032402 -0.0561785800134 0.0
0.647956321913 -0.0331689773964 0.0
-0.0171653208744 0.152702769021 0.0
-0.00127211655081 -0.003691576611 0.0
-0.007069158232 0.00171890615101 0.0
-0.00393290995976 -0.00127739693072 0.0
-0.0417410883647 -0.402633083917 0.0
-0.00196099475474 0.00871497738908 0.0
0.432164117237 0.0518987468653 0.0
0.070089926968 0.0433340122032 0.0
-0.07400279366 0.203963797436 0.0
-0.0206922650107 -0.184493915336 0.0
-0.0175804835367 -0.00186451093566 0.0
0.655534522727 0.0142778940057 0.0
-0.00416539308148 0.0322233007451 0.0
0.237503339968 0.0593962618028 0.0
-0.0460838614323 0.168162040271 0.0
-0.106000414034 -0.189431235518 0.0
-0.0797780877417 0.00394317476336 0.0
0.789478643012 0.00364649465404 0.0
-0.00377683275719 0.0712420279696 0.0
-0.00575890146287 -0.0321697752574 0.0
-0.0195265710916 0.000988376115986 0.0
-0.117337406347 -0.437993826055 0.0
-0.0469581311259 -0.0135000218013 0.0
0.158406162253 0.114978360457 0.0
-0.0290111901087 0.0698930607587 0.0
0.241432145736 0.0835659625789 0.0
-0.111542095245 -0.266935043812 0.0
-0.0363794345647 0.120324672512 0.0
-0.0685651909823 -0.00572127107018 0.0
-0.153018552423 -0.341341732751 0.0
0.155499604496 0.11622513974 0.0
-0.0698360410603 -0.0133935839158 0.0
-0.0432543734033 0.10356219157 0.0
-0.0774256897947 0.227240471046 0.0
-0.100004382804 0.0402123809381 0.0
-0.0997427213575 -0.50898238356 0.0
-0.0166885792329 -0.00821831286864 0.0
0.124639576833 0.128632327289 0.0
-0.0120600718035 0.0252346220772 0.0
-0.162914914433 0.0245954447451 0.0
0.369936119449 -0.102737607243 0.0
-0.0432815233444 0.233098568388 0.0
-0.00929885360351 -0.0174099740493 0.0
-0.0221079575535 0.00882559713919 0.0
-0.17705823947 0.0933282371703 0.0
-0.218941553574 -0.0525941077253 0.0
-0.149570237473 0.0728169736374 0.0
0.410690949766 0.000974806228529 0.0
-0.0273820638514 0.18189492019 0.0
-0.0350386015064 -0.0813417434855 0.0
-0.0519385485049 0.00830040412086 0.0
-0.000165274492267 2.92421332026e-05 0.0
-0.00119322122264 0.000910305024149 0.0
0.37971586815 -0.155838003625 0.0
0.000227699391848 -0.000314810458438 0.0
-0.0684026554888 0.267013987817 0.0
-0.039071511856 -0.489250276108 0.0
-0.000810237833521 0.00143868473665 0.0
0.212005905324 0.114567499902 0.0
-0.105218317201 0.0184958906283 0.0
-0.0660312557779 -0.0899931937156 0.0
-0.0707127663663 0.0234844789857 0.0
0.0883611249451 0.074000432548 0.0
-0.0736309983896 0.186372212468 0.0
-0.1095481468 0.072786710647 0.0
-0.129082448202 0.170608469218 0.0
-0.138552471456 -0.403831507504 0.0
-0.0338851870377 -0.0104211032496 0.0
0.21768726722 0.0939597616556 0.0
-0.0186610655156 0.0511549953074 0.0
0.164386080741 -0.0446978506006 0.0
-0.0538027471141 0.233415782012 0.0
-0.139111065737 -0.0797894871954 0.0
-0.113929162225 0.0716637803053 0.0
-0.175626768237 0.063862059886 0.0
0.481407481361 0.0162792103977 0.0
-0.0209126702309 0.143589141869 0.0
-0.0343578031 -0.100702504439 0.0
-0.0491994420458 0.00319085117472 0.0
0.106677971475 0.111618003829 0.0
-0.0653780069296 0.148566393306 0.0
-0.214006758316 -0.0224851879663 0.0
-0.141122698123 -0.112226362682 0.0
-0.103214652288 0.00852418706082 0.0
-0.140253401745 -0.202977733394 0.0
-0.194095873385 0.00368431712237 0.0
-0.0800855124152 -0.00680831041001 0.0
-0.192326624018 0.0304829102516 0.0
0.00933198791456 -0.0272722270846 0.0
-0.126148049386 -0.116824731801 0.0
-0.0762273223626 0.21804016421 0.0
-0.182304566589 -0.0459347882328 0.0
0.206426323387 0.0233344878565 0.0
-0.0511825593889 0.204113279191 0.0
-0.0829519832057 -0.135157405788 0.0
-0.0788528273599 0.0145847316632 0.0
-0.0985554238729 0.207080507822 0.0
-0.188057352839 -0.142564585972 0.0
-0.00209091932315 0.18455985549 0.0
-0.0737350159499 0.0952103691581 0.0
-0.217987105593 -0.291761230238 0.0
-0.10821199944 -0.02693946287 0.0
0.789263560006 0.00853439372693 0.0
-0.00196338649972 0.0553255813616 0.0
-0.00694433458275 -0.0499067361365 0.0
-0.0193519122063 0.000545836578954 0.0
-0.0665678148854 -0.0772315933549 0.0
-0.0697199250753 0.0320571792591 0.0
-0.166014316828 0.121423397884 0.0
0.0919433718472 -0.0924040370348 0.0
-0.0577601006856 0.242568478473 0.0
-0.223573462182 -0.0247604328773 0.0
-0.223659398233 0.00677942028725 0.0
-0.236715459072 -0.0480995061448 0.0
-0.12837239006 0.0389568931973 0.0
-0.1165129744 0.124700284235 0.0
-0.234781537277 -0.0990587262361 0.0
-0.197917191656 -0.01821527652 0.0
-0.0794253629073 -0.293724254509 0.0
-0.0431598840195 0.228516813244 0.0
-0.0554793310171 -0.0410794285474 0.0
-0.0536273724752 0.0494017488701 0.0
-0.143263097433 -0.415898804295 0.0
0.0106000932485 0.185009765335 0.0
-0.0481646809144 -0.0263437042243 0.0
-0.0376475411294 0.0538547256453 0.0
-0.138688476301 0.0153663790836 0.0
0.241654756452 -0.0976188900448 0.0
-0.0472001110696 0.241408390151 0.0
-0.029913961112 -0.045565034774 0.0
-0.0441942088108 0.0188114664514 0.0
0.447200813156 -0.0376343570046 0.0
-0.026616399686 0.198933307109 0.0
-0.0175202021497 -0.0402115876843 0.0
-0.0364253884353 0.0088489540529 0.0
0.0253086385641 0.132687202002 0.0
-0.0865971507258 0.149387174133 0.0
-0.0949058847267 0.0510954576066 0.0
-0.21372123607 -0.158759582377 0.0
-0.151148841238 -0.0502531136739 0.0
-0.109199003322 0.125351017419 0.0
-0.140069431027 0.138888388 0.0
0.776219168268 -0.00431997855844 0.0
-0.00395329251654 0.090497283495 0.0
-0.00224439997686 -0.0141294336176 0.0
-0.0143713357268 0.00114413019452 0.0
-0.0704702819885 0.231992127099 0.0
-0.144886702414 0.159040250985 0.0
-0.0169577499899 -0.170758506385 0.0
-0.0114171797938 -0.000920180368795 0.0
0.70340356464 0.0158238780135 0.0
-0.00184287672061 0.0211558463004 0.0
0.545661819726 -0.00571295987731 0.0
-0.0172749973945 0.155848472645 0.0
-0.0180046913655 -0.0531072734716 0.0
-0.0378196975084 0.00515948437589 0.0
-0.0622527327137 0.160335855285 0.0
-0.0341806684729 0.169385490386 0.0
-0.045842459969 0.2212449697 0.0
-0.0755202586254 0.0667927611908 0.0
-0.225671089787 -0.00166554418301 0.0
0.287917083799 -0.189532621812 0.0
-0.0713857985103 0.259701712711 0.0
-0.00396230324482 -0.00572822199803 0.0
-0.00990844943413 0.00603429438063 0.0
0.525204567305 0.0246641667822 0.0
-0.0165940829351 0.115028099882 0.0
-0.035340746144 -0.117930359182 0.0
-0.0450374770314 0.00103630838 0.0
0.138654305665 0.0867548631349 0.0