# vtk DataFile Version 2.0
2D Simulation Python
ASCII
DATASET UNSTRUCTURED_GRID
FIELD FieldData 1
NODES 1 2 int
3798 7382

POINTS 3798 double
0.0 0.0 0.0
1.0 0.0 0.0
1.0 1.0 0.0
0.0 1.0 0.0
0.01886792452826637 0.0 0.0
0.03773584905653053 0.0 0.0
0.05660377358479097 0.0 0.0
0.07547169811305962 0.0 0.0
0.09433962264133271 0.0 0.0
0.1132075471696058 0.0 0.0
0.1320754716978688 0.0 0.0
0.1509433962261159 0.0 0.0
0.1698113207543628 0.0 0.0
0.1886792452826097 0.0 0.0
0.2075471698108566 0.0 0.0
0.2264150943391035 0.0 0.0
0.2452830188673504 0.0 0.0
0.2641509433955972 0.0 0.0
0.2830188679238441 0.0 0.0
0.301886792452091 0.0 0.0
0.3207547169803379 0.0 0.0
0.3396226415085848 0.0 0.0
0.3584905660368317 0.0 0.0
0.3773584905650785 0.0 0.0
0.3962264150933255 0.0 0.0
0.4150943396215723 0.0 0.0
0.4339622641498192 0.0 0.0
0.4528301886780661 0.0 0.0
0.4716981132063129 0.0 0.0
0.4905660377345599 0.0 0.0
0.5094339622628591 0.0 0.0
0.5283018867912108 0.0 0.0
0.5471698113195625 0.0 0.0
0.5660377358479143 0.0 0.0
0.5849056603762659 0.0 0.0
0.6037735849046176 0.0 0.0
0.6226415094329693 0.0 0.0
0.6415094339613208 0.0 0.0
0.6603773584896723 0.0 0.0
0.6792452830180238 0.0 0.0
0.6981132075463754 0.0 0.0
0.7169811320747269 0.0 0.0
0.7358490566030784 0.0 0.0
0.7547169811314299 0.0 0.0
0.7735849056597816 0.0 0.0
0.7924528301881331 0.0 0.0
0.8113207547164847 0.0 0.0
0.8301886792448361 0.0 0.0
0.8490566037731877 0.0 0.0
0.8679245283015392 0.0 0.0
0.8867924528298908 0.0 0.0
0.9056603773582425 0.0 0.0
0.9245283018865939 0.0 0.0
0.9433962264149454 0.0 0.0
0.962264150943297 0.0 0.0
0.9811320754716486 0.0 0.0
1.0 0.01886792452826637 0.0
1.0 0.03773584905653053 0.0
1.0 0.05660377358479097 0.0
1.0 0.07547169811305962 0.0
1.0 0.09433962264133271 0.0
1.0 0.1132075471696058 0.0
1.0 0.1320754716978688 0.0
1.0 0.1509433962261159 0.0
1.0 0.1698113207543628 0.0
1.0 0.1886792452826097 0.0
1.0 0.2075471698108566 0.0
1.0 0.2264150943391035 0.0
1.0 0.2452830188673504 0.0
1.0 0.2641509433955972 0.0
1.0 0.2830188679238441 0.0
1.0 0.301886792452091 0.0
1.0 0.3207547169803379 0.0
1.0 0.3396226415085848 0.0
1.0 0.3584905660368317 0.0
1.0 0.3773584905650785 0.0
1.0 0.3962264150933255 0.0
1.0 0.4150943396215723 0.0
1.0 0.4339622641498192 0.0
1.0 0.4528301886780661 0.0
1.0 0.4716981132063129 0.0
1.0 0.4905660377345599 0.0
1.0 0.5094339622628591 0.0
1.0 0.5283018867912108 0.0
1.0 0.5471698113195625 0.0
1.0 0.5660377358479143 0.0
1.0 0.5849056603762659 0.0
1.0 0.6037735849046176 0.0
1.0 0.6226415094329693 0.0
1.0 0.6415094339613208 0.0
1.0 0.6603773584896723 0.0
1.0 0.6792452830180238 0.0
1.0 0.6981132075463754 0.0
1.0 0.7169811320747269 0.0
1.0 0.7358490566030784 0.0
1.0 0.7547169811314299 0.0
1.0 0.7735849056597816 0.0
1.0 0.7924528301881331 0.0
1.0 0.8113207547164847 0.0
1.0 0.8301886792448361 0.0
1.0 0.8490566037731877 0.0
1.0 0.8679245283015392 0.0
1.0 0.8867924528298908 0.0
1.0 0.9056603773582425 0.0
1.0 0.9245283018865939 0.0
1.0 0.9433962264149454 0.0
1.0 0.962264150943297 0.0
1.0 0.9811320754716486 0.0
0.9811320754716195 1.0 0.0
0.9622641509432391 1.0 0.0
0.9433962264148587 1.0 0.0
0.9245283018864782 1.0 0.0
0.9056603773580978 1.0 0.0
0.8867924528297173 1.0 0.0
0.8679245283014174 1.0 0.0
0.8490566037732444 1.0 0.0
0.8301886792450734 1.0 0.0
0.8113207547169025 1.0 0.0
0.7924528301887315 1.0 0.0
0.7735849056605606 1.0 0.0
0.7547169811323896 1.0 0.0
0.7358490566042186 1.0 0.0
0.7169811320760476 1.0 0.0
0.6981132075478766 1.0 0.0
0.6792452830197057 1.0 0.0
0.6603773584915346 1.0 0.0
0.6415094339633636 1.0 0.0
0.6226415094351925 1.0 0.0
0.6037735849070215 1.0 0.0
0.5849056603788504 1.0 0.0
0.5660377358506794 1.0 0.0
0.5471698113225083 1.0 0.0
0.5283018867943372 1.0 0.0
0.5094339622661662 1.0 0.0
0.4905660377378905 1.0 0.0
0.4716981132095099 1.0 0.0
0.4528301886811295 1.0 0.0
0.4339622641527489 1.0 0.0
0.4150943396243684 1.0 0.0
0.3962264150959879 1.0 0.0
0.3773584905676074 1.0 0.0
0.358490566039227 1.0 0.0
0.3396226415108468 1.0 0.0
0.3207547169824663 1.0 0.0
0.3018867924540859 1.0 0.0
0.2830188679257056 1.0 0.0
0.2641509433973251 1.0 0.0
0.2452830188689448 1.0 0.0
0.2264150943405645 1.0 0.0
0.2075471698121841 1.0 0.0
0.1886792452838036 1.0 0.0
0.1698113207554234 1.0 0.0
0.150943396227043 1.0 0.0
0.1320754716986625 1.0 0.0
0.1132075471702823 1.0 0.0
0.09433962264190188 1.0 0.0
0.0754716981135215 1.0 0.0
0.05660377358514113 1.0 0.0
0.03773584905676075 1.0 0.0
0.01886792452838049 1.0 0.0
0.0 0.9811320754716195 0.0
0.0 0.9622641509432391 0.0
0.0 0.9433962264148587 0.0
0.0 0.9245283018864782 0.0
0.0 0.9056603773580978 0.0
0.0 0.8867924528297173 0.0
0.0 0.8679245283014174 0.0
0.0 0.8490566037732444 0.0
0.0 0.8301886792450734 0.0
0.0 0.8113207547169025 0.0
0.0 0.7924528301887315 0.0
0.0 0.7735849056605606 0.0
0.0 0.7547169811323896 0.0
0.0 0.7358490566042186 0.0
0.0 0.7169811320760476 0.0
0.0 0.6981132075478766 0.0
0.0 0.6792452830197057 0.0
0.0 0.6603773584915346 0.0
0.0 0.6415094339633636 0.0
0.0 0.6226415094351925 0.0
0.0 0.6037735849070215 0.0
0.0 0.5849056603788504 0.0
0.0 0.5660377358506794 0.0
0.0 0.5471698113225083 0.0
0.0 0.5283018867943372 0.0
0.0 0.5094339622661662 0.0
0.0 0.4905660377378905 0.0
0.0 0.4716981132095099 0.0
0.0 0.4528301886811295 0.0
0.0 0.4339622641527489 0.0
0.0 0.4150943396243684 0.0
0.0 0.3962264150959879 0.0
0.0 0.3773584905676074 0.0
0.0 0.358490566039227 0.0
0.0 0.3396226415108468 0.0
0.0 0.3207547169824663 0.0
0.0 0.3018867924540859 0.0
0.0 0.2830188679257056 0.0
0.0 0.2641509433973251 0.0
0.0 0.2452830188689448 0.0
0.0 0.2264150943405645 0.0
0.0 0.2075471698121841 0.0
0.0 0.1886792452838036 0.0
0.0 0.1698113207554234 0.0
0.0 0.150943396227043 0.0
0.0 0.1320754716986625 0.0
0.0 0.1132075471702823 0.0
0.0 0.09433962264190188 0.0
0.0 0.0754716981135215 0.0
0.0 0.05660377358514113 0.0
0.0 0.03773584905676075 0.0
0.0 0.01886792452838049 0.0
0.49961422419268997 0.4984293794066726 0.0
0.7093511500970902 0.706792936500378 0.0
0.29287482782244045 0.7110496278611782 0.0
0.7065208514432915 0.2921137893028175 0.0
0.2917146567058879 0.2951459957249887 0.0
0.5010883512796402 0.783530677658598 0.0
0.2164159732426224 0.5012876322837192 0.0
0.7820505253934122 0.4994927647991782 0.0
0.4969563419356505 0.21663804071479492 0.0
0.8269192007901067 0.8287013252031155 0.0
0.1712682973217082 0.8268730922835856 0.0
0.8299941553097447 0.17180608262880254 0.0
0.17180615988223974 0.17000622072452293 0.0
0.5640959313975822 0.6420224840910225 0.0
0.36076803388570655 0.5671667288006801 0.0
0.641160245161879 0.4320186669377829 0.0
0.4354935082651592 0.36378759861759746 0.0
0.6410454186381067 0.8479832937118897 0.0
0.1518368310809157 0.6410829539811169 0.0
0.8477907051244511 0.3598243790179788 0.0
0.35938579904680457 0.15130729784326102 0.0
0.8497305928919907 0.6399401683101269 0.0
0.3617952267412937 0.8474454291453152 0.0
0.6436051449793575 0.15189469658234833 0.0
0.15079737625026685 0.3588783576988489 0.0
0.6832039587940572 0.5823618751624478 0.0
0.4454396775914624 0.6627381531764 0.0
0.33424594078221964 0.4385872006022409 0.0
0.5773189844856303 0.3195812160927133 0.0
0.5368082180804761 0.8869865896668006 0.0
0.11301341973883329 0.5368082072162796 0.0
0.8863497125425446 0.46278650800142523 0.0
0.46231798559604276 0.1137357048419064 0.0
0.735504344602733 0.8878298811845817 0.0
0.11217246241749894 0.7355045289688809 0.0
0.8876386118329569 0.26464529586215935 0.0
0.26447675721717134 0.11218714573944835 0.0
0.8918893682153743 0.7430319146751548 0.0
0.7378676821853629 0.10938784471235846 0.0
0.2618554236513495 0.8907466135047526 0.0
0.10927139946373736 0.2618885660485004 0.0
0.6036356850091371 0.740958324467786 0.0
0.2594197395873493 0.6024781400358834 0.0
0.7471835282093033 0.3970113006814754 0.0
0.39635295506120277 0.25856270415268773 0.0
0.5973835830959042 0.5282120591728078 0.0
0.5269880475515504 0.40324375384926064 0.0
0.900344051349824 0.09737126935472232 0.0
0.09737116846728401 0.09965601878423913 0.0
0.9027736024298996 0.9004379740924425 0.0
0.09965486244215357 0.9026299600545967 0.0
0.3830054844266893 0.7484876862569074 0.0
0.25074672726321157 0.3828059459383084 0.0
0.9036934196956306 0.5634343341860331 0.0
0.436167023944368 0.903809418557912 0.0
0.5634650142808684 0.09627038765249357 0.0
0.09611428176536896 0.43622888244072316 0.0
0.7383691909253696 0.7977530090605311 0.0
0.20213608094646243 0.7381864461382426 0.0
0.7965379729869333 0.25833485688790847 0.0
0.25825176979143294 0.20343822649683996 0.0
0.8016496201203362 0.7232057683389532 0.0
0.27776554876540255 0.7985644202275013 0.0
0.7230025466734626 0.19888476423555862 0.0
0.20134253349952064 0.2778412830843111 0.0
0.48914355287031674 0.5909586444150075 0.0
0.4113298235007088 0.49483643887222295 0.0
0.7553604068177817 0.6323161440656005 0.0
0.6323326401346647 0.2446343261447706 0.0
0.3558016573651024 0.6535168196958461 0.0
0.6947272998992697 0.49553252027219197 0.0
0.34695271761644664 0.35520182412877976 0.0
0.49374473330545476 0.3082796821038452 0.0
0.8187154539118972 0.9148861354006228 0.0
0.08511383208187207 0.8187154148724425 0.0
0.9150328940734902 0.18133025458140606 0.0
0.18128457425270267 0.0851129709589244 0.0
0.8187403987114168 0.08420346742597412 0.0
0.9157746719419576 0.8186373542270347 0.0
0.08420340483892619 0.18125955209024192 0.0
0.18126035834340148 0.9157847355643594 0.0
0.6491759294498078 0.6582605894876106 0.0
0.518075563238964 0.700155561243168 0.0
0.2994944160935228 0.5182519107636043 0.0
0.6529572976260253 0.35254842454839763 0.0
0.6097401473872117 0.9217208439447089 0.0
0.07827850601264716 0.6097398708442259 0.0
0.9217267277120186 0.3902548071573767 0.0
0.39024121399465406 0.07825838690395835 0.0
0.9257398577009572 0.6657069734842804 0.0
0.6657516430505073 0.07518432263878908 0.0
0.3341866530930919 0.9246109018771522 0.0
0.07542270790545244 0.3342243925275289 0.0
0.8225798016625723 0.5644120390192462 0.0
0.43501894509773303 0.8272239480204406 0.0
0.5644015723185061 0.17743228884395235 0.0
0.1728552698143025 0.4351788286843611 0.0
0.5668992511560398 0.812632221934239 0.0
[...]
POINT_DATA 3798
VECTORS vector double
0.0 0.0 0.0
0.0 0.0 0.0
0.0 0.0 0.0
0.0 0.0 0.0
0.0 0.0 0.0
0.0 0.0 0.0
0.0 0.0 0.0
0.0 0.0 0.0
0.0 0.0 0.0
0.0 0.0 0.0
0.0 0.0 0.0
0.0 0.0 0.0
0.0 0.0 0.0
0.0 0.0 0.0
0.0 0.0 0.0
0.0 0.0 0.0
0.0 0.0 0.0
0.0 0.0 0.0
0.0 0.0 0.0
0.0 0.0 0.0
0.0 0.0 0.0
0.0 0.0 0.0
0.0 0.0 0.0
0.0 0.0 0.0
0.0 0.0 0.0
0.0 0.0 0.0
0.0 0.0 0.0
0.0 0.0 0.0
0.0 0.0 0.0
0.0 0.0 0.0
0.0 0.0 0.0
0.0 0.0 0.0
0.0 0.0 0.0
0.0 0.0 0.0
0.0 0.0 0.0
0.0 0.0 0.0
0.0 0.0 0.0
0.0 0.0 0.0
0.0 0.0 0.0
0.0 0.0 0.0
0.0 0.0 0.0
0.0 0.0 0.0
0.0 0.0 0.0
0.0 0.0 0.0
0.0 0.0 0.0
0.0 0.0 0.0
0.0 0.0 0.0
0.0 0.0 0.0
0.0 0.0 0.0
0.0 0.0 0.0
0.0 0.0 0.0
0.0 0.0 0.0
0.0 0.0 0.0
0.0 0.0 0.0
0.0 0.0 0.0
0.0 0.0 0.0
0.0 0.0 0.0
0.0 0.0 0.0
0.0 0.0 0.0
0.0 0.0 0.0
0.0 0.0 0.0
0.0 0.0 0.0
0.0 0.0 0.0
0.0 0.0 0.0
0.0 0.0 0.0
0.0 0.0 0.0
0.0 0.0 0.0
0.0 0.0 0.0
0.0 0.0 0.0
0.0 0.0 0.0
0.0 0.0 0.0
0.0 0.0 0.0
0.0 0.0 0.0
0.0 0.0 0.0
0.0 0.0 0.0
0.0 0.0 0.0
0.0 0.0 0.0
0.0 0.0 0.0
0.0 0.0 0.0
0.0 0.0 0.0
0.0 0.0 0.0
0.0 0.0 0.0
0.0 0.0 0.0
0.0 0.0 0.0
0.0 0.0 0.0
0.0 0.0 0.0
0.0 0.0 0.0
0.0 0.0 0.0
0.0 0.0 0.0
0.0 0.0 0.0
0.0 0.0 0.0
0.0 0.0 0.0
0.0 0.0 0.0
0.0 0.0 0.0
0.0 0.0 0.0
0.0 0.0 0.0
0.0 0.0 0.0
0.0 0.0 0.0
0.0 0.0 0.0
0.0 0.0 0.0
0.0 0.0 0.0
0.0 0.0 0.0
0.0 0.0 0.0
0.0 0.0 0.0
0.0 0.0 0.0
0.0 0.0 0.0
0.0 0.0 0.0
0.0 0.0 0.0
1.0 0.0 0.0
1.0 0.0 0.0
1.0 0.0 0.0
1.0 0.0 0.0
1.0 0.0 0.0
1.0 0.0 0.0
1.0 0.0 0.0
1.0 0.0 0.0
1.0 0.0 0.0
1.0 0.0 0.0
1.0 0.0 0.0
1.0 0.0 0.0
1.0 0.0 0.0
1.0 0.0 0.0
1.0 0.0 0.0
1.0 0.0 0.0
1.0 0.0 0.0
1.0 0.0 0.0
1.0 0.0 0.0
1.0 0.0 0.0
1.0 0.0 0.0
1.0 0.0 0.0
1.0 0.0 0.0
1.0 0.0 0.0
1.0 0.0 0.0
1.0 0.0 0.0
1.0 0.0 0.0
1.0 0.0 0.0
1.0 0.0 0.0
1.0 0.0 0.0
1.0 0.0 0.0
1.0 0.0 0.0
1.0 0.0 0.0
1.0 0.0 0.0
1.0 0.0 0.0
1.0 0.0 0.0
1.0 0.0 0.0
1.0 0.0 0.0
1.0 0.0 0.0
1.0 0.0 0.0
1.0 0.0 0.0
1.0 0.0 0.0
1.0 0.0 0.0
1.0 0.0 0.0
1.0 0.0 0.0
1.0 0.0 0.0
1.0 0.0 0.0
1.0 0.0 0.0
1.0 0.0 0.0
1.0 0.0 0.0
1.0 0.0 0.0
1.0 0.0 0.0
0.0 0.0 0.0
0.0 0.0 0.0
0.0 0.0 0.0
0.0 0.0 0.0
0.0 0.0 0.0
0.0 0.0 0.0
0.0 0.0 0.0
0.0 0.0 0.0
0.0 0.0 0.0
0.0 0.0 0.0
0.0 0.0 0.0
0.0 0.0 0.0
0.0 0.0 0.0
0.0 0.0 0.0
0.0 0.0 0.0
0.0 0.0 0.0
0.0 0.0 0.0
0.0 0.0 0.0
0.0 0.0 0.0
0.0 0.0 0.0
0.0 0.0 0.0
0.0 0.0 0.0
0.0 0.0 0.0
0.0 0.0 0.0
0.0 0.0 0.0
0.0 0.0 0.0
0.0 0.0 0.0
0.0 0.0 0.0
0.0 0.0 0.0
0.0 0.0 0.0
0.0 0.0 0.0
0.0 0.0 0.0
0.0 0.0 0.0
0.0 0.0 0.0
0.0 0.0 0.0
0.0 0.0 0.0
0.0 0.0 0.0
0.0 0.0 0.0
0.0 0.0 0.0
0.0 0.0 0.0
0.0 0.0 0.0
0.0 0.0 0.0
0.0 0.0 0.0
0.0 0.0 0.0
0.0 0.0 0.0
0.0 0.0 0.0
0.0 0.0 0.0
0.0 0.0 0.0
0.0 0.0 0.0
0.0 0.0 0.0
0.0 0.0 0.0
0.0 0.0 0.0
-0.212262042582 0.0525594123726 0.0
-0.111041695794 -0.166338406446 0.0
-0.0587214196448 0.229144241659 0.0
-0.112500044303 -0.0747056033304 0.0
-0.0953252725104 0.0660989280834 0.0
0.0740837701235 0.104544276619 0.0
-0.0784520680068 0.169881876971 0.0
-0.184409996154 -0.23298760302 0.0
-0.113836344121 8.62484698308e-05 0.0
0.0352713229857 -0.308820574092 0.0
-0.0598813073283 0.245465371591 0.0
-0.0211385030531 -0.0213694502657 0.0
-0.0272827510116 0.0234379159841 0.0
-0.147391565175 0.0347779050271 0.0
-0.134787113699 0.174335131314 0.0
-0.220264632859 -0.096449152437 0.0
-0.168751500921 0.0488449851469 0.0
0.26565550509 -0.00964698312042 0.0
-0.0423567708132 0.216455847815 0.0
-0.0594570017524 -0.0998561328954 0.0
-0.0676691571982 0.0160838461609 0.0
-0.16133513028 -0.389605067191 0.0
0.117516878068 0.131209180707 0.0
-0.0652001660391 -0.0189803304962 0.0
-0.041913493174 0.0885853548419 0.0
-0.232389898086 -0.157365100073 0.0
-0.0971018869186 0.151719792281 0.0
-0.141235548677 0.123301232362 0.0
-0.166706722576 -0.0339251857393 0.0
0.380982966915 0.0357067331721 0.0
-0.0279075520952 0.150327664684 0.0
-0.0595666993893 -0.154266174225 0.0
-0.063091849771 0.00255375702154 0.0
0.372898596633 -0.0700888988813 0.0
-0.0344488895674 0.225439823566 0.0
-0.0179888234242 -0.0348711189475 0.0
-0.0354877741277 0.0116841429664 0.0
-0.11416512846 -0.488619639875 0.0
-0.0284102597828 -0.011997109982 0.0
0.118322966984 0.128708819124 0.0
-0.0187435148464 0.040269084857 0.0
-0.00598471630207 0.0122907247182 0.0
-0.0857622146761 0.216180905478 0.0
-0.15059484888 -0.143056437132 0.0
-0.118896925886 0.0337885519566 0.0
-0.236379742425 -0.0435750033397 0.0
-0.206412756605 0.00240240915516 0.0
-0.00231460327032 -0.00258197077856 0.0
-0.00532970758138 0.00499930614091 0.0
0.0696956584692 -0.370985856785 0.0
-0.0780444239129 0.253009775187 0.0
-0.0154183253765 0.183728651923 0.0
-0.0923160224395 0.109471143179 0.0
-0.0726851114019 -0.239476028463 0.0
0.382404380662 0.0526891737932 0.0
-0.0521313065712 -0.00469099224015 0.0
-0.0221085595647 0.09778294937 0.0
0.0653252505507 -0.157461929045 0.0
-0.0543330398141 0.250427151979 0.0
-0.0548609548233 -0.0567244460829 0.0
-0.0589066693068 0.0354425382122 0.0
-0.135184332985 -0.353258528636 0.0
-0.017316019277 0.210622685081 0.0
-0.0622689497428 -0.0377117631707 0.0
-0.0545437282523 0.0612985066616 0.0
-0.169685133324 0.0976076385674 0.0
-0.175254019482 0.116797299643 0.0
-0.209422858726 -0.27747073413 0.0
-0.112991383733 -0.040091515737 0.0
-0.0919895897856 0.201869393737 0.0
-0.23335878524 -0.163550943217 0.0
-0.132643103269 0.0808567108573 0.0
-0.159361500981 0.00784167370139 0.0
0.381065158013 -0.117267926214 0.0
-0.0498184572132 0.238216143026 0.0
-0.00540098245123 -0.00956315684616 0.0
-0.0148109833618 0.00659728289874 0.0
-0.00921107828626 -0.00596011782947 0.0
-0.0817523285874 -0.525134477006 0.0
-0.00888448724891 0.0155705600946 0.0
0.0966614245933 0.148241199309 0.0
-0.157457236659 -0.0807011884965 0.0
-0.0614843742499 0.0968749818254 0.0
-0.118345261101 0.173110199831 0.0
-0.170719833649 -0.0807573158474 0.0
0.565184743199 0.00175036228551 0.0
-0.015439497158 0.142931374988 0.0
-0.0203693819952 -0.0660021563284 0.0
-0.040516177422 0.00388224933636 0.0
-0.0681698767356 -0.329661963108 0.0
-0.0301792732174 -0.00603078759184 0.0
0.384142378488 0.0582340036486 0.0
-0.0125609808046 0.0499315726163 0.0
-0.173117554429 -0.309685208453 0.0
0.130936274423 0.117915186026 0.0
-0.0908200175748 -0.011887002774 0.0
-0.0561403017262 0.130494599699 0.0
0.155474871403 0.0489864219623 0.0
-0.0602571013822 0.198330223311 0.0
-0.111080062606 -0.167979139093 0.0
-0.0957957903418 0.0119594378256 0.0
-0.191738486116 0.0626999898422 0.0
-0.0965663889133 -0.103041366749 0.0
-0.0859383183849 0.0350119556047 0.0
0.0635027361727 -0.0580139605558 0.0
-0.0629565697365 0.238696600807 0.0
-0.23067580705 -0.0307190774441 0.0
0.587654862535 -0.0163763815519 0.0
-0.0141445180094 0.157619477841 0.0
-0.0111778186831 -0.0350801379394 0.0
-0.0308651263781 0.00489446913324 0.0
-0.226663408591 -0.252310793046 0.0
-0.129522903336 -0.0207413915602 0.0
-0.143125268045 0.149887765416 0.0
-0.0222465352755 0.150775022941 0.0
-0.106241825187 0.142239581035 0.0
-0.212027911341 -0.0487957089714 0.0
-0.205130515752 -0.0472941261628 0.0
-0.163005079081 0.0864949087216 0.0
-0.207299371088 0.0194020533657 0.0
-0.181909323158 0.108956882633 0.0
0.577630075295 0.018092978916 0.0
-0.0114132666456 0.0927469883429 0.0
-0.0267445639935 -0.127499162702 0.0
-0.0396673089254 -0.000625961259382 0.0
0.207832274085 0.0819375354936 0.0
-0.048353573116 0.152890827837 0.0
-0.127321339103 -0.237553283021 0.0
-0.0863854683947 -0.00106791165986 0.0
0.23639131749 -0.0661244512908 0.0
-0.0448008546009 0.237576191289 0.0
-0.0439878676537 -0.0662268660707 0.0
-0.0572479742324 0.0210508591286 0.0
-0.0944333675677 -0.409580912167 0.0
-0.0182202818985 0.206920246987 0.0
-0.0350960358072 -0.0246412421535 0.0
-0.0332898217283 0.0397813276845 0.0
-0.0255653464765 0.207636199484 0.0
-0.078771838379 0.081775602937 0.0
-0.120529353837 0.0565659242573 0.0
-0.0359428218163 -0.211354449842 0.0
-0.0299628493047 -0.00306096496822 0.0
0.541538235456 0.0275297209303 0.0
-0.00909447996459 0.0561408181285 0.0
-0.0826133905916 0.223678764233 0.0
-0.19391073984 -0.181908293304 0.0
-0.143773408404 0.0311677875178 0.0
0.000140513277538 0.000165835921239 0.0
-0.000773353259777 0.000681302631937 0.0
0.0821600692278 -0.343306070982 0.0
-0.0646967034348 0.269855548595 0.0
0.647770763181 0.00839089349639 0.0
-0.0087423293648 0.10189589037 0.0
-0.015468150051 -0.0745649851121 0.0
-0.0346566400058 0.00105443580513 0.0
0.608852806667 -0.0316203127694 0.0
-0.0146866119079 0.165558558627 0.0
-0.00414665501326 -0.011162575626 0.0
-0.0156132457267 0.00343027079034 0.0
-0.058463292304 -0.417198495019 0.0
-0.0109336441126 -0.00351116623327 0.0
0.358800394317 0.0644473760828 0.0
-0.00548032655289 0.0188447682895 0.0
0.167563031586 -0.16654997225 0.0
-0.054671303074 0.254193497654 0.0
-0.0259986234752 -0.0344560909095 0.0
-0.03823867161 0.0212947223746 0.0
-0.155419411898 -0.436708934486 0.0
0.0757556801837 0.15486954247 0.0
-0.0515230013619 -0.022132079533 0.0
-0.0360296142733 0.0642975307615 0.0
0.0106220607753 0.0741774991971 0.0
-0.0936195813335 0.192572467747 0.0
-0.142758679109 -0.102437389882 0.0
-0.133416180269 0.0927211250582 0.0
-0.146023832499 0.15199305594 0.0
-0.0781616358794 -0.0628767615653 0.0
-0.184945026516 -0.176655965333 0.0
-0.138301833739 -0.0636603509888 0.0
-0.0721423174726 0.0452737793379 0.0
-0.110020102579 0.195127769773 0.0
-0.187011960185 -0.116231714362 0.0
-0.244122099481 -0.114031926681 0.0
-0.183027356862 -0.0100538062257 0.0
0.468324050391 -0.100912515938 0.0
-0.0486654923294 0.228209551788 0.0
-0.00111412192127 -0.00153053245369 0.0
-0.0048737793632 0.0021246033951 0.0
-0.0018219816147 -0.0013993466142 0.0
-0.0578391683334 -0.515109751593 0.0
-0.00259092208523 0.0049252925828 0.0
0.163559114569 0.121203961796 0.0
-0.0578948264357 0.207912935385 0.0
-0.120168719285 0.106890615799 0.0
-0.124150544317 0.0149096538369 0.0
0.341745522962 0.0223977630504 0.0
-0.0341419368101 0.181809364398 0.0
-0.058201157035 -0.123485013509 0.0
-0.0658573982381 0.00748621913258 0.0
-0.0704690020351 -0.225230431129 0.0
-0.0487708374991 0.23718410294 0.0
-0.0751694223616 -0.0575646797356 0.0
-0.06897146389 0.0528524262475 0.0
-0.163645289234 -0.270635206453 0.0
-0.0955726261888 -0.0508283959659 0.0
0.122791508073 0.0065799551901 0.0
-0.0634517286563 0.22279389726 0.0
-0.106561460859 -0.13360737632 0.0
-0.0944793879009 0.0235333884706 0.0
-0.0444647005639 -0.326889742049 0.0
-0.0159208217037 -0.00324529875747 0.0
0.490614278209 0.0359251999298 0.0
-0.00559581726495 0.0271234096905 0.0
0.120989564013 -0.29556182903 0.0
-0.0742519871898 0.258115071413 0.0
-0.00932600452293 -0.0105678867277 0.0
-0.015417114042 0.0126485412179 0.0
0.0530366117056 0.158210958671 0.0
-0.06694073677 0.11078210335 0.0
-0.240563302636 -0.0921855738905 0.0
-0.186306954162 0.0245260784204 0.0
-0.0604950145189 0.180697984182 0.0
-0.00200606799068 -0.260151879721 0.0
-0.0519156861849 0.244401982388 0.0
-0.0413843725713 -0.0381129247907 0.0
-0.0457167493379 0.0368203623927 0.0
-0.105574082385 0.0888316474224 0.0
-0.104902463967 -0.322177782118 0.0
0.279581887038 0.0788052837739 0.0
-0.0537694512948 -0.00913912027942 0.0
-0.0260462270118 0.0877336550619 0.0
-0.197829496212 -0.341576505399 0.0
-0.0912458195229 -0.0238329644122 0.0
-0.213166054751 0.0329883755922 0.0
-0.22725254674 0.00675267715468 0.0
-0.142894201805 0.0546404624143 0.0
-0.184751666555 -0.36460525179 0.0
-0.0787715571182 -0.0329380487862 0.0
0.0252334040312 0.179315896871 0.0
-0.0562465851636 0.0809035763071 0.0
-0.160490716074 0.143595081552 0.0
-0.0181088838344 -0.120460394718 0.0
-0.0259112926888 -0.00101638488514 0.0
0.684310722101 0.0143361707284 0.0
-0.00541739864984 0.054833440938 0.0
-0.107505588947 0.201356816662 0.0
-0.21473170887 -0.143911912945 0.0
-0.075270670173 -0.459760890567 0.0
-0.0143659249482 0.19880093106 0.0
-0.0194363847795 -0.0141044157304 0.0
-0.0195597286042 0.0258698701649 0.0
0.371771852644 0.0553949705928 0.0
-0.0264679371454 0.125596433981 0.0
-0.0731497777213 -0.198624287807 0.0
-0.0603850160428 -0.00104327453669 0.0
-0.197506333446 0.0802164873219 0.0
0.0363217550561 0.147825356699 0.0
-0.0828165693512 0.13597658152 0.0
0.377499957608 -0.0323429644657 0.0
-0.0318891377157 0.210030195782 0.0
-0.0306550953598 -0.0607531370352 0.0
-0.0485342271913 0.012009872934 0.0
-0.203140045143 0.0600261020163 0.0
0.703067847756 -0.0128746717513 0.0
-0.00693556721197 0.124659312364 0.0
-0.00384549857649 -0.0147094933337 0.0
-0.0172369332474 0.00259081201759 0.0
-0.16268571623 0.115234278592 0.0
0.732754615892 -0.00758166596755 0.0
-0.00730299487774 0.101931323924 0.0
-0.00537768734977 -0.0287850225388 0.0
-0.0228201127874 0.00138930173776 0.0
-0.240765119575 -0.187989412582 0.0
-0.156889144552 -0.0159927988773 0.0
-0.104846156638 0.177647048497 0.0
-0.130398337448 0.135764829062 0.0
-0.227818053014 -0.214102764757 0.0
-0.141191585117 -0.0386586748199 0.0
0.211761841981 -0.180788952653 0.0
-0.0603796147889 0.255698079111 0.0
-0.013226004573 -0.0192574694415 0.0
-0.0245469719933 0.0138448303085 0.0
-0.0143398638018 -0.122291398017 0.0
-0.0605944652227 0.241682571802 0.0
-0.0915236768495 -0.0813658585082 0.0
-0.0826961586594 0.0477658749062 0.0
-0.0277061328333 -0.450386119702 0.0
-0.00781154322018 -0.0069321366248 0.0
-0.0415651840099 0.213434988905 0.0
-0.0105597678693 0.0126273531875 0.0
-0.131074300889 -0.0100773822221 0.0
-0.220261951679 -0.216215935251 0.0
-0.136387651572 -0.00282152367379 0.0
-0.155822638251 -0.17645434766 0.0
-0.143482546237 0.100697643714 0.0
-0.196355079608 -0.273489960368 0.0
-0.109684071623 -0.0107246100131 0.0
-0.122476576829 0.18253764057 0.0
-0.170715816184 0.0596146817911 0.0
-0.00502083079727 0.117155848013 0.0
-0.0651183754358 0.138529769558 0.0
-0.10100858827 0.166914493963 0.0
-0.127137335462 0.147661058036 0.0
-0.207400976782 -0.104860193299 0.0
-0.202889555967 -0.0832112636346 0.0
-0.177606307211 -0.0582670287309 0.0
0.647207398478 -0.0340515144742 0.0
-0.0169646410703 0.152565296379 0.0
-0.00129251002391 -0.00332395961377 0.0
-0.00717175139651 0.00168331800529 0.0
-0.00386589531786 -0.00128481449813 0.0
-0.0414488708393 -0.397885560086 0.0
-0.00202939970888 0.00860367908762 0.0
0.43226499249 0.0518236343866 0.0
0.0752274848476 0.0414699366125 0.0
-0.0736447561673 0.208430551824 0.0
-0.0206660933794 -0.185128394982 0.0
-0.0179233938583 -0.00190609345692 0.0
0.656862481386 0.0141439327331 0.0
-0.00431365132448 0.033086757051 0.0
0.241892701407 0.0582583984389 0.0
-0.0463246992497 0.172417696889 0.0
-0.107429656296 -0.193171257526 0.0
-0.0824541411328 0.00398822431177 0.0
0.790316837722 0.00261946100784 0.0
-0.00371813548733 0.0726322963669 0.0
-0.00588973820072 -0.0325543364741 0.0
-0.0200199467388 0.00103291314211 0.0
-0.116445900776 -0.439920467191 0.0
-0.0482749366113 -0.013944897173 0.0
0.162062723965 0.115584110885 0.0
-0.0300314614252 0.0720947294537 0.0
0.24590790104 0.0832280084613 0.0
-0.112168503995 -0.270797637518 0.0
-0.0371729610756 0.123876013539 0.0
-0.0707096770428 -0.00598449994967 0.0
-0.152890347833 -0.34516645638 0.0
0.160085263119 0.116497666763 0.0
-0.0719746250316 -0.0139170125322 0.0
-0.0445027857128 0.106742623857 0.0
-0.0755190077574 0.231065110392 0.0
-0.103426564435 0.0414381231436 0.0
-0.0985519286915 -0.508774063086 0.0
-0.0169191348584 -0.00838355665244 0.0
0.126095267701 0.129117825104 0.0
-0.0125342792684 0.0258658206819 0.0
-0.167756021997 0.0249004114651 0.0
0.371001986204 -0.103335032436 0.0
-0.042333851746 0.234382761818 0.0
-0.00951997974008 -0.0175374419509 0.0
-0.0227308780436 0.00902351524586 0.0
-0.179890520172 0.0949557471954 0.0
-0.222705024587 -0.0547482233033 0.0
-0.153766732965 0.0746338095564 0.0
0.413669741276 -0.000583269068624 0.0
-0.0268580817039 0.185390804208 0.0
-0.0358718263089 -0.0830575902345 0.0
-0.0536185363376 0.0085567152282 0.0
-0.000143291800232 0.000235850392749 0.0
-0.00117306139061 0.000781180772569 0.0
0.378942772558 -0.154310806002 0.0
0.000305866166483 -0.000203260962587 0.0
-0.0684112561981 0.266522124991 0.0
-0.0388203048976 -0.483136597816 0.0
-0.000819555540144 0.00125697986428 0.0
0.211803181816 0.114284879221 0.0
-0.108883654832 0.0189735832437 0.0
-0.0677245366155 -0.0922507392113 0.0
-0.0733152691654 0.0242226042203 0.0
0.0932238981624 0.0725673526583 0.0
-0.073928390595 0.190857969483 0.0
-0.105460206047 0.0713489091469 0.0
-0.129552450806 0.173932739229 0.0
-0.137794619972 -0.406726769029 0.0
-0.0346698278328 -0.0107304802392 0.0
0.220357071094 0.0944622755488 0.0
-0.0193586331165 0.0527283457422 0.0
0.168214499965 -0.0466231906636 0.0
-0.0522417978831 0.237317100105 0.0
-0.142668752398 -0.0823667927226 0.0
-0.117457438319 0.0737866625563 0.0
-0.179448847222 0.0650355997282 0.0
0.484431585909 0.015184753411 0.0
-0.0208455074565 0.146905767035 0.0
-0.0350083042408 -0.102659116605 0.0
-0.0507151664009 0.00327357971182 0.0
0.111689504856 0.111118208234 0.0
-0.0664993277638 0.152703584151 0.0
-0.217603830323 -0.0238840687979 0.0
-0.137258885361 -0.114924017296 0.0
-0.106741443148 0.00865467107144 0.0
-0.142063568481 -0.207150116837 0.0
-0.191820053702 0.00176687479778 0.0
-0.0751810757308 -0.00914493918094 0.0
-0.1963300325 0.030602995959 0.0
0.014127245059 -0.0295416144128 0.0
-0.129068155679 -0.120027585981 0.0
-0.0732344814056 0.220878863934 0.0
-0.179225820002 -0.0484815914389 0.0
0.210567465346 0.0215728716377 0.0
-0.0505977587786 0.20844568431 0.0
-0.0846661480494 -0.138238186697 0.0
-0.081524502434 0.0150104838391 0.0
-0.0973632338858 0.210807643311 0.0
-0.191043887907 -0.146337496618 0.0
0.002713534438 0.185841117774 0.0
-0.0760674892017 0.0981608282161 0.0
-0.217036845892 -0.295583340245 0.0
-0.111555058954 -0.0280266645284 0.0
0.790358063616 0.0081241636293 0.0
-0.00195049789142 0.0566144178006 0.0
-0.00706257095253 -0.0503672908112 0.0
-0.0198526084654 0.000521290072733 0.0
-0.068338892024 -0.0792454592016 0.0
-0.0721625022903 0.0330707272461 0.0
-0.165012052222 0.122109440545 0.0
0.0955453325562 -0.0943362130582 0.0
-0.0556377496351 0.246136566703 0.0
-0.222734340689 -0.0268595507264 0.0
-0.226362776721 0.0058641871524 0.0
-0.23876830069 -0.050262061843 0.0
-0.132563592974 0.0399934864118 0.0
-0.119170533464 0.12804894322 0.0
-0.233916236199 -0.102005793791 0.0
-0.202246701034 -0.0194084123104 0.0
-0.0762305310692 -0.295263171306 0.0
-0.039655342447 0.230794665319 0.0
-0.0571313910198 -0.0422381419842 0.0
-0.0556015826256 0.0509548497847 0.0
-0.140900756672 -0.417510739349 0.0
0.0142055067964 0.186424611592 0.0
-0.0494792629642 -0.0271191485881 0.0
-0.0390581918698 0.0555302608956 0.0
-0.142922197335 0.0155563641405 0.0
0.244077783582 -0.0989526910156 0.0
-0.0455874082736 0.244182766109 0.0
-0.0307215033989 -0.0465348439624 0.0
-0.045651766819 0.0193734823067 0.0
0.448953850864 -0.0391945442276 0.0
-0.0258395586982 0.201454722236 0.0
-0.017968790382 -0.0409381742423 0.0
-0.0374843123193 0.00910873573203 0.0
0.0304443326638 0.132337251106 0.0
-0.088135160795 0.153453544761 0.0
-0.0982196550219 0.0526842417477 0.0
-0.21133543543 -0.161929421809 0.0
-0.155193714639 -0.0521422360109 0.0
-0.105433920917 0.125065645085 0.0
-0.142124123808 0.141995712459 0.0
0.776282821837 -0.00635388668572 0.0
-0.00383411931431 0.0914218571991 0.0
-0.00230573938747 -0.0140995967985 0.0
-0.0147030892905 0.00120553218539 0.0
-0.067813306837 0.2354434472 0.0
-0.144250910882 0.16109722755 0.0
-0.0169509893651 -0.170647705544 0.0
-0.0115976978276 -0.00095485546367 0.0
0.704276945695 0.0156815453382 0.0
-0.0019134659944 0.0216471631905 0.0
0.547691305846 -0.00732477854414 0.0
-0.016884058919 0.158562949643 0.0
-0.0184572122574 -0.0541015254534 0.0
-0.0389376245538 0.00533034971968 0.0
-0.0579624534142 0.160752546886 0.0
-0.0294116061703 0.170034749531 0.0
-0.0419200968524 0.223674190723 0.0
-0.0781788446603 0.0689096952774 0.0
-0.225832333966 -0.00323744281451 0.0
0.288366312771 -0.188778742309 0.0
-0.0708214558344 0.259891968755 0.0
-0.00399756531066 -0.00560118876175 0.0
-0.0101300343647 0.0060865196033 0.0
0.527997214088 0.0238966152883 0.0
-0.0166942705982 0.117990310434 0.0
-0.0358594587027 -0.1199843362 0.0
-0.0463294636134 0.00103628463303 0.0
0.143488131393 0.0857512824464 0.0