# vtk DataFile Version 2.0
2D Simulation Python
ASCII
DATASET UNSTRUCTURED_GRID
FIELD FieldData 1
NODES 1 2 int
3798 7382

POINTS 3798 double
0.0 0.0 0.0
1.0 0.0 0.0
1.0 1.0 0.0
0.0 1.0 0.0
0.01886792452826637 0.0 0.0
0.03773584905653053 0.0 0.0
0.05660377358479097 0.0 0.0
0.07547169811305962 0.0 0.0
0.09433962264133271 0.0 0.0
0.1132075471696058 0.0 0.0
0.1320754716978688 0.0 0.0
0.1509433962261159 0.0 0.0
0.1698113207543628 0.0 0.0
0.1886792452826097 0.0 0.0
0.2075471698108566 0.0 0.0
0.2264150943391035 0.0 0.0
0.2452830188673504 0.0 0.0
0.2641509433955972 0.0 0.0
0.2830188679238441 0.0 0.0
0.301886792452091 0.0 0.0
0.3207547169803379 0.0 0.0
0.3396226415085848 0.0 0.0
0.3584905660368317 0.0 0.0
0.3773584905650785 0.0 0.0
0.3962264150933255 0.0 0.0
0.4150943396215723 0.0 0.0
0.4339622641498192 0.0 0.0
0.4528301886780661 0.0 0.0
0.4716981132063129 0.0 0.0
0.4905660377345599 0.0 0.0
0.5094339622628591 0.0 0.0
0.5283018867912108 0.0 0.0
0.5471698113195625 0.0 0.0
0.5660377358479143 0.0 0.0
0.5849056603762659 0.0 0.0
0.6037735849046176 0.0 0.0
0.6226415094329693 0.0 0.0
0.6415094339613208 0.0 0.0
0.6603773584896723 0.0 0.0
0.6792452830180238 0.0 0.0
0.6981132075463754 0.0 0.0
0.7169811320747269 0.0 0.0
0.7358490566030784 0.0 0.0
0.7547169811314299 0.0 0.0
0.7735849056597816 0.0 0.0
0.7924528301881331 0.0 0.0
0.8113207547164847 0.0 0.0
0.8301886792448361 0.0 0.0
0.8490566037731877 0.0 0.0
0.8679245283015392 0.0 0.0
0.8867924528298908 0.0 0.0
0.9056603773582425 0.0 0.0
0.9245283018865939 0.0 0.0
0.9433962264149454 0.0 0.0
0.962264150943297 0.0 0.0
0.9811320754716486 0.0 0.0
1.0 0.01886792452826637 0.0
1.0 0.03773584905653053 0.0
1.0 0.05660377358479097 0.0
1.0 0.07547169811305962 0.0
1.0 0.09433962264133271 0.0
1.0 0.1132075471696058 0.0
1.0 0.1320754716978688 0.0
1.0 0.1509433962261159 0.0
1.0 0.1698113207543628 0.0
1.0 0.1886792452826097 0.0
1.0 0.2075471698108566 0.0
1.0 0.2264150943391035 0.0
1.0 0.2452830188673504 0.0
1.0 0.2641509433955972 0.0
1.0 0.2830188679238441 0.0
1.0 0.301886792452091 0.0
1.0 0.3207547169803379 0.0
1.0 0.3396226415085848 0.0
1.0 0.3584905660368317 0.0
1.0 0.3773584905650785 0.0
1.0 0.3962264150933255 0.0
1.0 0.4150943396215723 0.0
1.0 0.4339622641498192 0.0
1.0 0.4528301886780661 0.0
1.0 0.4716981132063129 0.0
1.0 0.4905660377345599 0.0
1.0 0.5094339622628591 0.0
1.0 0.5283018867912108 0.0
1.0 0.5471698113195625 0.0
1.0 0.5660377358479143 0.0
1.0 0.5849056603762659 0.0
1.0 0.6037735849046176 0.0
1.0 0.6226415094329693 0.0
1.0 0.6415094339613208 0.0
1.0 0.6603773584896723 0.0
1.0 0.6792452830180238 0.0
1.0 0.6981132075463754 0.0
1.0 0.7169811320747269 0.0
1.0 0.7358490566030784 0.0
1.0 0.7547169811314299 0.0
1.0 0.7735849056597816 0.0
1.0 0.7924528301881331 0.0
1.0 0.8113207547164847 0.0
1.0 0.8301886792448361 0.0
1.0 0.8490566037731877 0.0
1.0 0.8679245283015392 0.0
1.0 0.8867924528298908 0.0
1.0 0.9056603773582425 0.0
1.0 0.9245283018865939 0.0
1.0 0.9433962264149454 0.0
1.0 0.962264150943297 0.0
1.0 0.9811320754716486 0.0
0.9811320754716195 1.0 0.0
0.9622641509432391 1.0 0.0
0.9433962264148587 1.0 0.0
0.9245283018864782 1.0 0.0
0.9056603773580978 1.0 0.0
0.8867924528297173 1.0 0.0
0.8679245283014174 1.0 0.0
0.8490566037732444 1.0 0.0
0.8301886792450734 1.0 0.0
0.8113207547169025 1.0 0.0
0.7924528301887315 1.0 0.0
0.7735849056605606 1.0 0.0
0.7547169811323896 1.0 0.0
0.7358490566042186 1.0 0.0
0.7169811320760476 1.0 0.0
0.6981132075478766 1.0 0.0
0.6792452830197057 1.0 0.0
0.6603773584915346 1.0 0.0
0.6415094339633636 1.0 0.0
0.6226415094351925 1.0 0.0
0.6037735849070215 1.0 0.0
0.5849056603788504 1.0 0.0
0.5660377358506794 1.0 0.0
0.5471698113225083 1.0 0.0
0.5283018867943372 1.0 0.0
0.5094339622661662 1.0 0.0
0.4905660377378905 1.0 0.0
0.4716981132095099 1.0 0.0
0.4528301886811295 1.0 0.0
0.4339622641527489 1.0 0.0
0.4150943396243684 1.0 0.0
0.3962264150959879 1.0 0.0
0.3773584905676074 1.0 0.0
0.358490566039227 1.0 0.0
0.3396226415108468 1.0 0.0
0.3207547169824663 1.0 0.0
0.3018867924540859 1.0 0.0
0.2830188679257056 1.0 0.0
0.2641509433973251 1.0 0.0
0.2452830188689448 1.0 0.0
0.2264150943405645 1.0 0.0
0.2075471698121841 1.0 0.0
0.1886792452838036 1.0 0.0
0.1698113207554234 1.0 0.0
0.150943396227043 1.0 0.0
0.1320754716986625 1.0 0.0
0.1132075471702823 1.0 0.0
0.09433962264190188 1.0 0.0
0.0754716981135215 1.0 0.0
0.05660377358514113 1.0 0.0
0.03773584905676075 1.0 0.0
0.01886792452838049 1.0 0.0
0.0 0.9811320754716195 0.0
0.0 0.9622641509432391 0.0
0.0 0.9433962264148587 0.0
0.0 0.9245283018864782 0.0
0.0 0.9056603773580978 0.0
0.0 0.8867924528297173 0.0
0.0 0.8679245283014174 0.0
0.0 0.8490566037732444 0.0
0.0 0.8301886792450734 0.0
0.0 0.8113207547169025 0.0
0.0 0.7924528301887315 0.0
0.0 0.7735849056605606 0.0
0.0 0.7547169811323896 0.0
0.0 0.7358490566042186 0.0
0.0 0.7169811320760476 0.0
0.0 0.6981132075478766 0.0
0.0 0.6792452830197057 0.0
0.0 0.6603773584915346 0.0
0.0 0.6415094339633636 0.0
0.0 0.6226415094351925 0.0
0.0 0.6037735849070215 0.0
0.0 0.5849056603788504 0.0
0.0 0.5660377358506794 0.0
0.0 0.5471698113225083 0.0
0.0 0.5283018867943372 0.0
0.0 0.5094339622661662 0.0
0.0 0.4905660377378905 0.0
0.0 0.4716981132095099 0.0
0.0 0.4528301886811295 0.0
0.0 0.4339622641527489 0.0
0.0 0.4150943396243684 0.0
0.0 0.3962264150959879 0.0
0.0 0.3773584905676074 0.0
0.0 0.358490566039227 0.0
0.0 0.3396226415108468 0.0
0.0 0.3207547169824663 0.0
0.0 0.3018867924540859 0.0
0.0 0.2830188679257056 0.0
0.0 0.2641509433973251 0.0
0.0 0.2452830188689448 0.0
0.0 0.2264150943405645 0.0
0.0 0.2075471698121841 0.0
0.0 0.1886792452838036 0.0
0.0 0.1698113207554234 0.0
0.0 0.150943396227043 0.0
0.0 0.1320754716986625 0.0
0.0 0.1132075471702823 0.0
0.0 0.09433962264190188 0.0
0.0 0.0754716981135215 0.0
0.0 0.05660377358514113 0.0
0.0 0.03773584905676075 0.0
0.0 0.01886792452838049 0.0
0.49961422419268997 0.4984293794066726 0.0
0.7093511500970902 0.706792936500378 0.0
0.29287482782244045 0.7110496278611782 0.0
0.7065208514432915 0.2921137893028175 0.0
0.2917146567058879 0.2951459957249887 0.0
0.5010883512796402 0.783530677658598 0.0
0.2164159732426224 0.5012876322837192 0.0
0.7820505253934122 0.4994927647991782 0.0
0.4969563419356505 0.21663804071479492 0.0
0.8269192007901067 0.8287013252031155 0.0
0.1712682973217082 0.8268730922835856 0.0
0.8299941553097447 0.17180608262880254 0.0
0.17180615988223974 0.17000622072452293 0.0
0.5640959313975822 0.6420224840910225 0.0
0.36076803388570655 0.5671667288006801 0.0
0.641160245161879 0.4320186669377829 0.0
0.4354935082651592 0.36378759861759746 0.0
0.6410454186381067 0.8479832937118897 0.0
0.1518368310809157 0.6410829539811169 0.0
0.8477907051244511 0.3598243790179788 0.0
0.35938579904680457 0.15130729784326102 0.0
0.8497305928919907 0.6399401683101269 0.0
0.3617952267412937 0.8474454291453152 0.0
0.6436051449793575 0.15189469658234833 0.0
0.15079737625026685 0.3588783576988489 0.0
0.6832039587940572 0.5823618751624478 0.0
0.4454396775914624 0.6627381531764 0.0
0.33424594078221964 0.4385872006022409 0.0
0.5773189844856303 0.3195812160927133 0.0
0.5368082180804761 0.8869865896668006 0.0
0.11301341973883329 0.5368082072162796 0.0
0.8863497125425446 0.46278650800142523 0.0
0.46231798559604276 0.1137357048419064 0.0
0.735504344602733 0.8878298811845817 0.0
0.11217246241749894 0.7355045289688809 0.0
0.8876386118329569 0.26464529586215935 0.0
0.26447675721717134 0.11218714573944835 0.0
0.8918893682153743 0.7430319146751548 0.0
0.7378676821853629 0.10938784471235846 0.0
0.2618554236513495 0.8907466135047526 0.0
0.10927139946373736 0.2618885660485004 0.0
0.6036356850091371 0.740958324467786 0.0
0.2594197395873493 0.6024781400358834 0.0
0.7471835282093033 0.3970113006814754 0.0
0.39635295506120277 0.25856270415268773 0.0
0.5973835830959042 0.5282120591728078 0.0
0.5269880475515504 0.40324375384926064 0.0
0.900344051349824 0.09737126935472232 0.0
0.09737116846728401 0.09965601878423913 0.0
0.9027736024298996 0.9004379740924425 0.0
0.09965486244215357 0.9026299600545967 0.0
0.3830054844266893 0.7484876862569074 0.0
0.25074672726321157 0.3828059459383084 0.0
0.9036934196956306 0.5634343341860331 0.0
0.436167023944368 0.903809418557912 0.0
0.5634650142808684 0.09627038765249357 0.0
0.09611428176536896 0.43622888244072316 0.0
0.7383691909253696 0.7977530090605311 0.0
0.20213608094646243 0.7381864461382426 0.0
0.7965379729869333 0.25833485688790847 0.0
0.25825176979143294 0.20343822649683996 0.0
0.8016496201203362 0.7232057683389532 0.0
0.27776554876540255 0.7985644202275013 0.0
0.7230025466734626 0.19888476423555862 0.0
0.20134253349952064 0.2778412830843111 0.0
0.48914355287031674 0.5909586444150075 0.0
0.4113298235007088 0.49483643887222295 0.0
0.7553604068177817 0.6323161440656005 0.0
0.6323326401346647 0.2446343261447706 0.0
0.3558016573651024 0.6535168196958461 0.0
0.6947272998992697 0.49553252027219197 0.0
0.34695271761644664 0.35520182412877976 0.0
0.49374473330545476 0.3082796821038452 0.0
0.8187154539118972 0.9148861354006228 0.0
0.08511383208187207 0.8187154148724425 0.0
0.9150328940734902 0.18133025458140606 0.0
0.18128457425270267 0.0851129709589244 0.0
0.8187403987114168 0.08420346742597412 0.0
0.9157746719419576 0.8186373542270347 0.0
0.08420340483892619 0.18125955209024192 0.0
0.18126035834340148 0.9157847355643594 0.0
0.6491759294498078 0.6582605894876106 0.0
0.518075563238964 0.700155561243168 0.0
0.2994944160935228 0.5182519107636043 0.0
0.6529572976260253 0.35254842454839763 0.0
0.6097401473872117 0.9217208439447089 0.0
0.07827850601264716 0.6097398708442259 0.0
0.9217267277120186 0.3902548071573767 0.0
0.39024121399465406 0.07825838690395835 0.0
0.9257398577009572 0.6657069734842804 0.0
0.6657516430505073 0.07518432263878908 0.0
0.3341866530930919 0.9246109018771522 0.0
0.07542270790545244 0.3342243925275289 0.0
0.8225798016625723 0.5644120390192462 0.0
0.43501894509773303 0.8272239480204406 0.0
0.5644015723185061 0.17743228884395235 0.0
0.1728552698143025 0.4351788286843611 0.0
0.5668992511560398 0.812632221934239 0.0
[...]
POINT_DATA 3798
VECTORS vector double
0.0 0.0 0.0
0.0 0.0 0.0
0.0 0.0 0.0
0.0 0.0 0.0
0.0 0.0 0.0
0.0 0.0 0.0
0.0 0.0 0.0
0.0 0.0 0.0
0.0 0.0 0.0
0.0 0.0 0.0
0.0 0.0 0.0
0.0 0.0 0.0
0.0 0.0 0.0
0.0 0.0 0.0
0.0 0.0 0.0
0.0 0.0 0.0
0.0 0.0 0.0
0.0 0.0 0.0
0.0 0.0 0.0
0.0 0.0 0.0
0.0 0.0 0.0
0.0 0.0 0.0
0.0 0.0 0.0
0.0 0.0 0.0
0.0 0.0 0.0
0.0 0.0 0.0
0.0 0.0 0.0
0.0 0.0 0.0
0.0 0.0 0.0
0.0 0.0 0.0
0.0 0.0 0.0
0.0 0.0 0.0
0.0 0.0 0.0
0.0 0.0 0.0
0.0 0.0 0.0
0.0 0.0 0.0
0.0 0.0 0.0
0.0 0.0 0.0
0.0 0.0 0.0
0.0 0.0 0.0
0.0 0.0 0.0
0.0 0.0 0.0
0.0 0.0 0.0
0.0 0.0 0.0
0.0 0.0 0.0
0.0 0.0 0.0
0.0 0.0 0.0
0.0 0.0 0.0
0.0 0.0 0.0
0.0 0.0 0.0
0.0 0.0 0.0
0.0 0.0 0.0
0.0 0.0 0.0
0.0 0.0 0.0
0.0 0.0 0.0
0.0 0.0 0.0
0.0 0.0 0.0
0.0 0.0 0.0
0.0 0.0 0.0
0.0 0.0 0.0
0.0 0.0 0.0
0.0 0.0 0.0
0.0 0.0 0.0
0.0 0.0 0.0
0.0 0.0 0.0
0.0 0.0 0.0
0.0 0.0 0.0
0.0 0.0 0.0
0.0 0.0 0.0
0.0 0.0 0.0
0.0 0.0 0.0
0.0 0.0 0.0
0.0 0.0 0.0
0.0 0.0 0.0
0.0 0.0 0.0
0.0 0.0 0.0
0.0 0.0 0.0
0.0 0.0 0.0
0.0 0.0 0.0
0.0 0.0 0.0
0.0 0.0 0.0
0.0 0.0 0.0
0.0 0.0 0.0
0.0 0.0 0.0
0.0 0.0 0.0
0.0 0.0 0.0
0.0 0.0 0.0
0.0 0.0 0.0
0.0 0.0 0.0
0.0 0.0 0.0
0.0 0.0 0.0
0.0 0.0 0.0
0.0 0.0 0.0
0.0 0.0 0.0
0.0 0.0 0.0
0.0 0.0 0.0
0.0 0.0 0.0
0.0 0.0 0.0
0.0 0.0 0.0
0.0 0.0 0.0
0.0 0.0 0.0
0.0 0.0 0.0
0.0 0.0 0.0
0.0 0.0 0.0
0.0 0.0 0.0
0.0 0.0 0.0
0.0 0.0 0.0
0.0 0.0 0.0
1.0 0.0 0.0
1.0 0.0 0.0
1.0 0.0 0.0
1.0 0.0 0.0
1.0 0.0 0.0
1.0 0.0 0.0
1.0 0.0 0.0
1.0 0.0 0.0
1.0 0.0 0.0
1.0 0.0 0.0
1.0 0.0 0.0
1.0 0.0 0.0
1.0 0.0 0.0
1.0 0.0 0.0
1.0 0.0 0.0
1.0 0.0 0.0
1.0 0.0 0.0
1.0 0.0 0.0
1.0 0.0 0.0
1.0 0.0 0.0
1.0 0.0 0.0
1.0 0.0 0.0
1.0 0.0 0.0
1.0 0.0 0.0
1.0 0.0 0.0
1.0 0.0 0.0
1.0 0.0 0.0
1.0 0.0 0.0
1.0 0.0 0.0
1.0 0.0 0.0
1.0 0.0 0.0
1.0 0.0 0.0
1.0 0.0 0.0
1.0 0.0 0.0
1.0 0.0 0.0
1.0 0.0 0.0
1.0 0.0 0.0
1.0 0.0 0.0
1.0 0.0 0.0
1.0 0.0 0.0
1.0 0.0 0.0
1.0 0.0 0.0
1.0 0.0 0.0
1.0 0.0 0.0
1.0 0.0 0.0
1.0 0.0 0.0
1.0 0.0 0.0
1.0 0.0 0.0
1.0 0.0 0.0
1.0 0.0 0.0
1.0 0.0 0.0
1.0 0.0 0.0
0.0 0.0 0.0
0.0 0.0 0.0
0.0 0.0 0.0
0.0 0.0 0.0
0.0 0.0 0.0
0.0 0.0 0.0
0.0 0.0 0.0
0.0 0.0 0.0
0.0 0.0 0.0
0.0 0.0 0.0
0.0 0.0 0.0
0.0 0.0 0.0
0.0 0.0 0.0
0.0 0.0 0.0
0.0 0.0 0.0
0.0 0.0 0.0
0.0 0.0 0.0
0.0 0.0 0.0
0.0 0.0 0.0
0.0 0.0 0.0
0.0 0.0 0.0
0.0 0.0 0.0
0.0 0.0 0.0
0.0 0.0 0.0
0.0 0.0 0.0
0.0 0.0 0.0
0.0 0.0 0.0
0.0 0.0 0.0
0.0 0.0 0.0
0.0 0.0 0.0
0.0 0.0 0.0
0.0 0.0 0.0
0.0 0.0 0.0
0.0 0.0 0.0
0.0 0.0 0.0
0.0 0.0 0.0
0.0 0.0 0.0
0.0 0.0 0.0
0.0 0.0 0.0
0.0 0.0 0.0
0.0 0.0 0.0
0.0 0.0 0.0
0.0 0.0 0.0
0.0 0.0 0.0
0.0 0.0 0.0
0.0 0.0 0.0
0.0 0.0 0.0
0.0 0.0 0.0
0.0 0.0 0.0
0.0 0.0 0.0
0.0 0.0 0.0
0.0 0.0 0.0
-0.211755720476 0.0527923615022 0.0
-0.115534084642 -0.164378035699 0.0
-0.0613802605929 0.227366306453 0.0
-0.110691276786 -0.0731113612272 0.0
-0.0931477287091 0.0647158565491 0.0
0.0695587992302 0.105737209396 0.0
-0.0779544810524 0.166881104832 0.0
-0.18476795507 -0.22997902216 0.0
-0.111761222165 0.000244876076273 0.0
0.0295157440025 -0.309094371307 0.0
-0.0613432163834 0.24469074596 0.0
-0.0209056411978 -0.0211802029233 0.0
-0.0266155159135 0.0230762506217 0.0
-0.15066156857 0.0363487671511 0.0
-0.135493948214 0.172575357016 0.0
-0.218491719939 -0.0943002161535 0.0
-0.166118317087 0.0482467401433 0.0
0.259522274174 -0.00751861645236 0.0
-0.0432172118356 0.213780120667 0.0
-0.0591590344917 -0.098399182884 0.0
-0.0663115129386 0.0157603346962 0.0
-0.163536469609 -0.387660236979 0.0
0.114313310546 0.131178826875 0.0
-0.0641391780542 -0.0185393829112 0.0
-0.0411120467593 0.0867100506275 0.0
-0.234816709475 -0.154900067581 0.0
-0.100401832584 0.15174615531 0.0
-0.139639406595 0.121291613738 0.0
-0.164048794896 -0.0328572337966 0.0
0.377276735036 0.0371157796907 0.0
-0.0279247439511 0.14776681002 0.0
-0.0595452769212 -0.152505126148 0.0
-0.0618758020465 0.0025357719519 0.0
0.363574171634 -0.0680501545528 0.0
-0.0353003383376 0.224001443778 0.0
-0.0178730873664 -0.0345819887075 0.0
-0.0346305567192 0.0114982083501 0.0
-0.118374465521 -0.488863279754 0.0
-0.0282909157532 -0.0118213868385 0.0
0.1168403274 0.128544559551 0.0
-0.0183325268156 0.0395229681772 0.0
-0.0111386859926 0.0142974839425 0.0
-0.0866466762735 0.21337537645 0.0
-0.148798996336 -0.140512358997 0.0
-0.11641994889 0.0331764174521 0.0
-0.237203111023 -0.0418632025962 0.0
-0.204474126138 0.00299171325638 0.0
-0.00229217967621 -0.00278143987035 0.0
-0.00514242789693 0.0051410932577 0.0
0.0567709528601 -0.373313095344 0.0
-0.078229252983 0.253365612188 0.0
-0.0192454927799 0.183298618164 0.0
-0.0907423283348 0.107254767193 0.0
-0.0731837403437 -0.237759512138 0.0
0.379562977465 0.0536504646312 0.0
-0.051194007199 -0.00460433853415 0.0
-0.021826155536 0.0958355129915 0.0
0.0587352915026 -0.155924476562 0.0
-0.0562341705851 0.248465322359 0.0
-0.0541124742413 -0.0557793286797 0.0
-0.0575273672468 0.0347204094881 0.0
-0.140743879641 -0.352118110402 0.0
-0.0202224768691 0.209570504648 0.0
-0.0613868526755 -0.0369530604918 0.0
-0.0533285670903 0.0600071710965 0.0
-0.171376518015 0.0979482286387 0.0
-0.174730412654 0.115683485145 0.0
-0.212866277766 -0.275173002468 0.0
-0.111137560647 -0.0390666428535 0.0
-0.0943772842261 0.200441948608 0.0
-0.233113563476 -0.160809108619 0.0
-0.130435539786 0.0793624575369 0.0
-0.156564886805 0.00800519736738 0.0
0.374907227839 -0.116456408855 0.0
-0.0503543551355 0.238026198049 0.0
-0.00535553898448 -0.00973629558862 0.0
-0.0144329307022 0.00661929572479 0.0
-0.00915159807052 -0.00597473899117 0.0
-0.0859834440945 -0.528022319948 0.0
-0.00865452640739 0.0154790252324 0.0
0.0960730383607 0.148304296266 0.0
-0.161452564323 -0.0785432498072 0.0
-0.0654363745724 0.0981018910319 0.0
-0.117944786213 0.170540005104 0.0
-0.168698388221 -0.0788723767459 0.0
0.561818195331 0.00385354829664 0.0
-0.0156758584014 0.141102078609 0.0
-0.0203650485463 -0.0654086562759 0.0
-0.039735076296 0.00379517585699 0.0
-0.0694900418022 -0.32928130975 0.0
-0.0298475226437 -0.00593119854351 0.0
0.382771285368 0.0585441863649 0.0
-0.0122846946432 0.048970672898 0.0
-0.173348564975 -0.306945498398 0.0
0.126734587713 0.118475319519 0.0
-0.0887840557895 -0.0115185774713 0.0
-0.0554000237071 0.127879747251 0.0
0.15135633238 0.0507550913904 0.0
-0.0604693256366 0.195230168627 0.0
-0.110520078271 -0.165532675955 0.0
-0.0937232913636 0.0117776271477 0.0
-0.190301097937 0.0622155505787 0.0
-0.095422052106 -0.101197249646 0.0
-0.0839864760858 0.0342861701997 0.0
0.0574623471524 -0.0559624563221 0.0
-0.0645631621783 0.236054844269 0.0
-0.230393698209 -0.0294084468392 0.0
0.58274636616 -0.013260902041 0.0
-0.0145059483774 0.156290645244 0.0
-0.0111666615005 -0.0349082665221 0.0
-0.0301513473295 0.00478538316044 0.0
-0.228115109805 -0.249461822637 0.0
-0.127146008506 -0.0200674380214 0.0
-0.144773943595 0.149226787756 0.0
-0.0263359686065 0.151134331483 0.0
-0.104845006293 0.139652149644 0.0
-0.2144026735 -0.0468287057746 0.0
-0.203332892293 -0.0458670603942 0.0
-0.161003567141 0.0852321576381 0.0
-0.209355577267 0.0206630542963 0.0
-0.183004052767 0.108602301485 0.0
0.574914887543 0.0193219507996 0.0
-0.0114174578696 0.0911058582916 0.0
-0.0274012485706 -0.126605871288 0.0
-0.0390202502797 -0.0005614137541 0.0
0.203925769364 0.0830631776677 0.0
-0.0479190141373 0.150044315261 0.0
-0.127118690382 -0.234912131518 0.0
-0.0846491931355 -0.000961723238889 0.0
0.230412592585 -0.0641486685858 0.0
-0.0459976176909 0.23534399284 0.0
-0.0435870539281 -0.0652731574084 0.0
-0.0560251348739 0.0206327238232 0.0
-0.0997172317888 -0.409392969026 0.0
-0.0202423686412 0.206167517688 0.0
-0.0347251942507 -0.0242595889327 0.0
-0.0324897643984 0.0390256675062 0.0
-0.0289657108511 0.206593110517 0.0
-0.0771843203087 0.0800428062984 0.0
-0.117873853649 0.0554645141643 0.0
-0.0367918271655 -0.210799140442 0.0
-0.0298109135671 -0.00309683932069 0.0
0.541372310237 0.0282948427035 0.0
-0.0089587868084 0.0550722087961 0.0
-0.0847527581949 0.221457792932 0.0
-0.193398066394 -0.179023767107 0.0
-0.141250029561 0.0307383741464 0.0
0.000114050989825 -0.000119685414927 0.0
-0.000675493814572 0.000994830111061 0.0
0.0722080375377 -0.353324136459 0.0
-0.0643789014983 0.27043495969 0.0
0.647621246449 0.00965742936213 0.0
-0.00881024583633 0.100372946793 0.0
-0.0156208127728 -0.0740573622896 0.0
-0.034315715502 0.00105181829518 0.0
0.605219968214 -0.0283371924858 0.0
-0.0149726528893 0.165214477738 0.0
-0.004167063562 -0.0113595661407 0.0
-0.0153262903351 0.00344097356724 0.0
-0.0608483473281 -0.419741712104 0.0
-0.0111047338695 -0.00350082795025 0.0
0.358932313864 0.064602590029 0.0
-0.00535281147641 0.0186686692065 0.0
0.160482362977 -0.165598431189 0.0
-0.0560801673048 0.252825676924 0.0
-0.0257335501532 -0.0340696441981 0.0
-0.0373442300156 0.0209298563613 0.0
-0.158647133739 -0.43561676072 0.0
0.0732806823077 0.154496471543 0.0
-0.0507428923369 -0.0216806122483 0.0
-0.035251235949 0.0629590302822 0.0
0.00589461297016 0.0757833578569 0.0
-0.0937791849226 0.189636066789 0.0
-0.141123419156 -0.100339122308 0.0
-0.136874401208 0.0936287282723 0.0
-0.145868404802 0.150064626546 0.0
-0.0829434649163 -0.0607689718486 0.0
-0.189263042954 -0.174459769546 0.0
-0.136305383768 -0.0621302045917 0.0
-0.076580158163 0.047013329391 0.0
-0.110603211523 0.192622994052 0.0
-0.185286944693 -0.113852027805 0.0
-0.245060443057 -0.111708939684 0.0
-0.180732034425 -0.00939297444522 0.0
0.463417665283 -0.100005425418 0.0
-0.0488171934112 0.228650378722 0.0
-0.00112165887327 -0.00182072119706 0.0
-0.00482101169598 0.00229149889786 0.0
-0.00188602215316 -0.00153618586191 0.0
-0.0660723015413 -0.520948554262 0.0
-0.00249344527789 0.00510572150348 0.0
0.163838230976 0.121599044513 0.0
-0.0610109728826 0.206734013467 0.0
-0.118241801196 0.104871148182 0.0
-0.121906963184 0.0147529943751 0.0
0.337952172764 0.0242277578329 0.0
-0.034427927708 0.179096462162 0.0
-0.0577950305196 -0.121873708042 0.0
-0.0644885626588 0.00735310000489 0.0
-0.0758453570686 -0.223720436433 0.0
-0.0513658009833 0.23550038384 0.0
-0.074170576349 -0.0564258677964 0.0
-0.0673996272751 0.0517359949427 0.0
-0.168832117946 -0.268814783324 0.0
-0.0941255773856 -0.0496784562762 0.0
0.11715072578 0.00862826229135 0.0
-0.0644387904624 0.219833430958 0.0
-0.10539039851 -0.131409905892 0.0
-0.0923952715111 0.0230823483351 0.0
-0.0463980101486 -0.327918580183 0.0
-0.0160858010903 -0.00323340439291 0.0
0.490944793062 0.0362436749975 0.0
-0.00546471001351 0.0267247190318 0.0
0.111759231766 -0.296903318672 0.0
-0.0750430191448 0.257892945433 0.0
-0.00928745365744 -0.0106399917771 0.0
-0.0150210109656 0.0125673090563 0.0
0.0491904470661 0.158132472732 0.0
-0.065803934313 0.108484663895 0.0
-0.240120352954 -0.0900289032576 0.0
-0.183377043968 0.0245303496041 0.0
-0.0639864472372 0.180267506745 0.0
-0.00716364943512 -0.259306960072 0.0
-0.0540532672154 0.243004205126 0.0
-0.0408547506656 -0.0375097882535 0.0
-0.0446288865772 0.0361011284113 0.0
-0.10359377742 0.0870325621567 0.0
-0.106136876353 -0.32034557312 0.0
0.276921869046 0.0792863263661 0.0
-0.0529518964083 -0.00894936843306 0.0
-0.0256087958289 0.0859137028573 0.0
-0.199592612277 -0.339157553124 0.0
-0.0894231151854 -0.0232034326712 0.0
-0.211960648551 0.0332420017223 0.0
-0.226962929894 0.00773414441277 0.0
-0.140268788149 0.0537172158734 0.0
-0.18851673825 -0.362840646588 0.0
-0.0774433285145 -0.0321761710326 0.0
0.0219554793784 0.178739928921 0.0
-0.0550300264109 0.0791825437265 0.0
-0.160796593423 0.142386612209 0.0
-0.0183081069101 -0.12009174383 0.0
-0.0258655099102 -0.00110797348651 0.0
0.685332439478 0.0157499070966 0.0
-0.00535501949662 0.05385215914 0.0
-0.109033862547 0.199329622452 0.0
-0.21320991948 -0.141280498966 0.0
-0.0811215645664 -0.460696462017 0.0
-0.0156656655706 0.198432031751 0.0
-0.019297794696 -0.0139838446094 0.0
-0.0190728426344 0.0254797607857 0.0
0.368478713576 0.0565569187232 0.0
-0.0262749763116 0.123239617799 0.0
-0.0731135577673 -0.196723549398 0.0
-0.0591801801904 -0.000981562246441 0.0
-0.196416960213 0.0798076392182 0.0
0.0320837306643 0.148179516544 0.0
-0.0817326827229 0.133321564388 0.0
0.372565989773 -0.0300534522359 0.0
-0.0326353257913 0.207937683917 0.0
-0.0303487797437 -0.0600203230384 0.0
-0.0474710528269 0.0117741054794 0.0
-0.204146628518 0.0605573228622 0.0
0.705212344894 -0.00906965519983 0.0
-0.0071464999518 0.124093796911 0.0
-0.00384226832262 -0.0148598898526 0.0
-0.0171578583294 0.0025553521077 0.0
-0.161224591117 0.113703691983 0.0
0.735703384574 -0.00530016454855 0.0
-0.00740667438588 0.100969760309 0.0
-0.00534441002692 -0.0287760535452 0.0
-0.022736724276 0.00132840992208 0.0
-0.241301334997 -0.185254726193 0.0
-0.153714805254 -0.0153308560312 0.0
-0.107251352062 0.176839326079 0.0
-0.132987975717 0.135827616701 0.0
-0.230481525811 -0.211563994032 0.0
-0.138770309585 -0.0375808610886 0.0
0.205726219678 -0.180607016701 0.0
-0.0614001169329 0.254960363438 0.0
-0.0130880238847 -0.0191959370145 0.0
-0.0239423320439 0.0136874342412 0.0
-0.019145546099 -0.120388987244 0.0
-0.0626995323793 0.239500656677 0.0
-0.0901690823669 -0.0798037356742 0.0
-0.0806182366274 0.0467594428707 0.0
-0.0349874154068 -0.452568650963 0.0
-0.00778587036302 -0.00700137841923 0.0
-0.0422179590144 0.213458175906 0.0
-0.0102766946509 0.0125771199076 0.0
-0.135920990421 -0.00812605381441 0.0
-0.220135401765 -0.213240988139 0.0
-0.133692154475 -0.00251638900363 0.0
-0.154721036152 -0.173679549933 0.0
-0.141187718643 0.0989820464225 0.0
-0.197199534448 -0.27053558162 0.0
-0.107589225909 -0.0103244621869 0.0
-0.124067210707 0.18111476787 0.0
-0.173020923536 0.0606938966268 0.0
-0.00931871068479 0.118177333132 0.0
-0.0692361079995 0.13906132307 0.0
-0.10021544249 0.164086293942 0.0
-0.125889253237 0.145247512798 0.0
-0.210166500981 -0.102600864227 0.0
-0.200359288526 -0.0812459695892 0.0
-0.175118845849 -0.0567389715649 0.0
0.666340126508 -0.0319990056335 0.0
-0.0171237331705 0.152722884238 0.0
-0.00131946186535 -0.00358881125896 0.0
-0.0079827922321 0.00179307609899 0.0
-0.00471971985182 -0.00130701446129 0.0
-0.0449476533099 -0.401844445318 0.0
-0.00196024417034 0.00865983721023 0.0
0.434425727102 0.0521089147153 0.0
0.0705622313351 0.0433582646272 0.0
-0.074061991489 0.205367315129 0.0
-0.0212965136291 -0.185267134885 0.0
-0.0184010440551 -0.00190439111176 0.0
0.65887017925 0.0145547433758 0.0
-0.0042228154851 0.0325189333129 0.0
0.237401065757 0.0597385982366 0.0
-0.0463889775559 0.169473446059 0.0
-0.107791273184 -0.190728513342 0.0
-0.080872318984 0.00396869776793 0.0
0.796282258521 0.00422823507811 0.0
-0.00378023242006 0.0717628781859 0.0
-0.00588237569896 -0.0325064054082 0.0
-0.0203855982951 0.000991345430605 0.0
-0.118567963428 -0.439392297279 0.0
-0.0474606079153 -0.0136585741246 0.0
0.159554292479 0.115553527732 0.0
-0.0294126768363 0.0705814236642 0.0
0.242172368401 0.0840841658475 0.0
-0.112802253507 -0.268402581084 0.0
-0.0367752730241 0.12141046079 0.0
-0.0694148620926 -0.00580710733806 0.0
-0.154728356568 -0.342825395611 0.0
0.156518281906 0.116802661435 0.0
-0.0706974733461 -0.0135609709613 0.0
-0.043803593119 0.104531370195 0.0
-0.0771346445267 0.228526076404 0.0
-0.101393248767 0.0406035350833 0.0
-0.101750663868 -0.510296663843 0.0
-0.0168114699671 -0.00830714918465 0.0
0.125072390043 0.129040650322 0.0
-0.0122070664734 0.025497517919 0.0
-0.164710718747 0.0247542066779 0.0
0.361630025891 -0.101905593795 0.0
-0.0430362821964 0.233685879849 0.0
-0.00947529136283 -0.0175674726751 0.0
-0.0221377893372 0.00894589735863 0.0
-0.178589933849 0.0939336509696 0.0
-0.220763615615 -0.0531265851922 0.0
-0.151165256441 0.0734185427655 0.0
0.409592868941 0.00160852281498 0.0
-0.0273224983248 0.183043065473 0.0
-0.035600028893 -0.0820334367865 0.0
-0.0524926977122 0.00838366269915 0.0
-0.00012699144925 -4.55360127849e-05 0.0
-0.00141596992154 0.00102954760741 0.0
0.386146740367 -0.156982354873 0.0
-0.000256400364733 -0.000389945590404 0.0
-0.0684153479313 0.267085303426 0.0
-0.0513237265692 -0.494887816896 0.0
-0.00071845713825 0.00152372580463 0.0
0.213150931252 0.114744015347 0.0
-0.106517965997 0.018662744696 0.0
-0.0671003388208 -0.0907499723727 0.0
-0.0715944686651 0.0237261902312 0.0
0.0871238305862 0.0741477330196 0.0
-0.0742555914077 0.187757771456 0.0
-0.109717603881 0.0727299371316 0.0
-0.129928467482 0.171721226093 0.0
-0.140009455135 -0.405214845994 0.0
-0.0342839773741 -0.0105439944012 0.0
0.218576169688 0.0944662070812 0.0
-0.0189274143231 0.0516779306963 0.0
0.162614042378 -0.0445586397848 0.0
-0.0535672645204 0.234701170831 0.0
-0.140960795968 -0.0805321353435 0.0
-0.115416801193 0.0723271146832 0.0
-0.177174471026 0.0643072107684 0.0
0.48069691823 0.0168179103981 0.0
-0.0209990420915 0.144675070382 0.0
-0.0350054125843 -0.101550358206 0.0
-0.049730068827 0.00322118189163 0.0
0.107339420321 0.112014478896 0.0
-0.0659572351406 0.149822136025 0.0
-0.216527260614 -0.022787824908 0.0
-0.143188512003 -0.112778092378 0.0
-0.104610500074 0.00858559171323 0.0
-0.141644804841 -0.20434438078 0.0
-0.194672603606 0.00337225522136 0.0
-0.0793523729999 -0.00711502097634 0.0
-0.194131927091 0.0306272993356 0.0
0.00939084324112 -0.0274557845487 0.0
-0.127595618118 -0.117801825479 0.0
-0.075903227228 0.219111171196 0.0
-0.183684373785 -0.0464333195417 0.0
0.205025426451 0.0235586130349 0.0
-0.0513172422141 0.20548078327 0.0
-0.0841147194469 -0.136203658035 0.0
-0.0799061520695 0.0147279149278 0.0
-0.0985206989314 0.208329373495 0.0
-0.190122020182 -0.143670014289 0.0
-0.00102392062899 0.185303382787 0.0
-0.07463616936 0.096105352474 0.0
-0.219450698824 -0.293000332312 0.0
-0.109634444331 -0.0272442834327 0.0
0.801398739264 0.00892289765529 0.0
-0.00199306561381 0.055759562544 0.0
-0.00717212372115 -0.0502215190639 0.0
-0.0211413534469 0.000566122529153 0.0
-0.0676250531448 -0.0778963507345 0.0
-0.0705893406888 0.0323852743817 0.0
-0.16650206286 0.121874208481 0.0
0.0876724962229 -0.0924348616034 0.0
-0.0573478516599 0.243781795359 0.0
-0.225316880175 -0.0251762690083 0.0
-0.225121253114 0.00665493812458 0.0
-0.238456036814 -0.0486032822729 0.0
-0.129987127437 0.0393047254952 0.0
-0.117645027433 0.125740589879 0.0
-0.236054740841 -0.0997800699047 0.0
-0.200050174143 -0.0184739717497 0.0
-0.081557724223 -0.294175005315 0.0
-0.0422839361046 0.229436461249 0.0
-0.0561958151232 -0.0414618168506 0.0
-0.0543451186943 0.0498962368292 0.0
-0.146107459764 -0.416711174961 0.0
0.0116616531342 0.185723199075 0.0
-0.0488152569889 -0.026605676259 0.0
-0.0381319783993 0.0543892214378 0.0
-0.140547957544 0.0154687624296 0.0
0.235714333049 -0.0972999215417 0.0
-0.046845473832 0.242399473201 0.0
-0.0304948294025 -0.0459546987367 0.0
-0.0446489021369 0.0190156653374 0.0
0.440487292197 -0.0366541196787 0.0
-0.0264779364429 0.199846136809 0.0
-0.017908719256 -0.0405840548057 0.0
-0.0366119418575 0.00894847419369 0.0
0.0254105695076 0.133059869973 0.0
-0.0874509323395 0.150627607858 0.0
-0.096114241959 0.0515938535805 0.0
-0.216292116458 -0.159573924386 0.0
-0.153460821693 -0.0507679364605 0.0
-0.108776185237 0.125615735938 0.0
-0.141211040233 0.139901769814 0.0
0.791741956736 -0.00308949517331 0.0
-0.00393620377972 0.0908915337839 0.0
-0.00232436231965 -0.0142427965641 0.0
-0.0156228230486 0.00114268587236 0.0
-0.0699859990673 0.233198394002 0.0
-0.145539725016 0.159853839363 0.0
-0.017607827128 -0.171187139818 0.0
-0.0127374620456 -0.000941877412824 0.0
0.7084877419 0.0160331215297 0.0
-0.00186929063448 0.0213199242529 0.0
0.543678153087 -0.00476608475295 0.0
-0.0172330365422 0.156808329014 0.0
-0.0183780497051 -0.0536286968694 0.0
-0.0381071680808 0.0052032839998 0.0
-0.0618938171231 0.160831694574 0.0
-0.0334567183648 0.169961794446 0.0
-0.0449902452208 0.222225139167 0.0
-0.0765416602094 0.0674448459558 0.0
-0.227018199779 -0.00193423561367 0.0
0.270829118786 -0.189091518489 0.0
-0.0712483044012 0.260009284255 0.0
-0.00401514591794 -0.00581097791282 0.0
-0.00973778739689 0.00615685559481 0.0
0.524485220737 0.0251778026701 0.0
-0.0167309621589 0.11600963049 0.0
-0.0361031027813 -0.118904129146 0.0
-0.0454967022677 0.00105229554826 0.0
0.137868464038 0.0870515540856 0.0