# vtk DataFile Version 2.0
2D Simulation Python
ASCII
DATASET UNSTRUCTURED_GRID
FIELD FieldData 1
NODES 1 2 int
3798 7382

POINTS 3798 double
0.0 0.0 0.0
1.0 0.0 0.0
1.0 1.0 0.0
0.0 1.0 0.0
0.01886792452826637 0.0 0.0
0.03773584905653053 0.0 0.0
0.05660377358479097 0.0 0.0
0.07547169811305962 0.0 0.0
0.09433962264133271 0.0 0.0
0.1132075471696058 0.0 0.0
0.1320754716978688 0.0 0.0
0.1509433962261159 0.0 0.0
0.1698113207543628 0.0 0.0
0.1886792452826097 0.0 0.0
0.2075471698108566 0.0 0.0
0.2264150943391035 0.0 0.0
0.2452830188673504 0.0 0.0
0.2641509433955972 0.0 0.0
0.2830188679238441 0.0 0.0
0.301886792452091 0.0 0.0
0.3207547169803379 0.0 0.0
0.3396226415085848 0.0 0.0
0.3584905660368317 0.0 0.0
0.3773584905650785 0.0 0.0
0.3962264150933255 0.0 0.0
0.4150943396215723 0.0 0.0
0.4339622641498192 0.0 0.0
0.4528301886780661 0.0 0.0
0.4716981132063129 0.0 0.0
0.4905660377345599 0.0 0.0
0.5094339622628591 0.0 0.0
0.5283018867912108 0.0 0.0
0.5471698113195625 0.0 0.0
0.5660377358479143 0.0 0.0
0.5849056603762659 0.0 0.0
0.6037735849046176 0.0 0.0
0.6226415094329693 0.0 0.0
0.6415094339613208 0.0 0.0
0.6603773584896723 0.0 0.0
0.6792452830180238 0.0 0.0
0.6981132075463754 0.0 0.0
0.7169811320747269 0.0 0.0
0.7358490566030784 0.0 0.0
0.7547169811314299 0.0 0.0
0.7735849056597816 0.0 0.0
0.7924528301881331 0.0 0.0
0.8113207547164847 0.0 0.0
0.8301886792448361 0.0 0.0
0.8490566037731877 0.0 0.0
0.8679245283015392 0.0 0.0
0.8867924528298908 0.0 0.0
0.9056603773582425 0.0 0.0
0.9245283018865939 0.0 0.0
0.9433962264149454 0.0 0.0
0.962264150943297 0.0 0.0
0.9811320754716486 0.0 0.0
1.0 0.01886792452826637 0.0
1.0 0.03773584905653053 0.0
1.0 0.05660377358479097 0.0
1.0 0.07547169811305962 0.0
1.0 0.09433962264133271 0.0
1.0 0.1132075471696058 0.0
1.0 0.1320754716978688 0.0
1.0 0.1509433962261159 0.0
1.0 0.1698113207543628 0.0
1.0 0.1886792452826097 0.0
1.0 0.2075471698108566 0.0
1.0 0.2264150943391035 0.0
1.0 0.2452830188673504 0.0
1.0 0.2641509433955972 0.0
1.0 0.2830188679238441 0.0
1.0 0.301886792452091 0.0
1.0 0.3207547169803379 0.0
1.0 0.3396226415085848 0.0
1.0 0.3584905660368317 0.0
1.0 0.3773584905650785 0.0
1.0 0.3962264150933255 0.0
1.0 0.4150943396215723 0.0
1.0 0.4339622641498192 0.0
1.0 0.4528301886780661 0.0
1.0 0.4716981132063129 0.0
1.0 0.4905660377345599 0.0
1.0 0.5094339622628591 0.0
1.0 0.5283018867912108 0.0
1.0 0.5471698113195625 0.0
1.0 0.5660377358479143 0.0
1.0 0.5849056603762659 0.0
1.0 0.6037735849046176 0.0
1.0 0.6226415094329693 0.0
1.0 0.6415094339613208 0.0
1.0 0.6603773584896723 0.0
1.0 0.6792452830180238 0.0
1.0 0.6981132075463754 0.0
1.0 0.7169811320747269 0.0
1.0 0.7358490566030784 0.0
1.0 0.7547169811314299 0.0
1.0 0.7735849056597816 0.0
1.0 0.7924528301881331 0.0
1.0 0.8113207547164847 0.0
1.0 0.8301886792448361 0.0
1.0 0.8490566037731877 0.0
1.0 0.8679245283015392 0.0
1.0 0.8867924528298908 0.0
1.0 0.9056603773582425 0.0
1.0 0.9245283018865939 0.0
1.0 0.9433962264149454 0.0
1.0 0.962264150943297 0.0
1.0 0.9811320754716486 0.0
0.9811320754716195 1.0 0.0
0.9622641509432391 1.0 0.0
0.9433962264148587 1.0 0.0
0.9245283018864782 1.0 0.0
0.9056603773580978 1.0 0.0
0.8867924528297173 1.0 0.0
0.8679245283014174 1.0 0.0
0.8490566037732444 1.0 0.0
0.8301886792450734 1.0 0.0
0.8113207547169025 1.0 0.0
0.7924528301887315 1.0 0.0
0.7735849056605606 1.0 0.0
0.7547169811323896 1.0 0.0
0.7358490566042186 1.0 0.0
0.7169811320760476 1.0 0.0
0.6981132075478766 1.0 0.0
0.6792452830197057 1.0 0.0
0.6603773584915346 1.0 0.0
0.6415094339633636 1.0 0.0
0.6226415094351925 1.0 0.0
0.6037735849070215 1.0 0.0
0.5849056603788504 1.0 0.0
0.5660377358506794 1.0 0.0
0.5471698113225083 1.0 0.0
0.5283018867943372 1.0 0.0
0.5094339622661662 1.0 0.0
0.4905660377378905 1.0 0.0
0.4716981132095099 1.0 0.0
0.4528301886811295 1.0 0.0
0.4339622641527489 1.0 0.0
0.4150943396243684 1.0 0.0
0.3962264150959879 1.0 0.0
0.3773584905676074 1.0 0.0
0.358490566039227 1.0 0.0
0.3396226415108468 1.0 0.0
0.3207547169824663 1.0 0.0
0.3018867924540859 1.0 0.0
0.2830188679257056 1.0 0.0
0.2641509433973251 1.0 0.0
0.2452830188689448 1.0 0.0
0.2264150943405645 1.0 0.0
0.2075471698121841 1.0 0.0
0.1886792452838036 1.0 0.0
0.1698113207554234 1.0 0.0
0.150943396227043 1.0 0.0
0.1320754716986625 1.0 0.0
0.1132075471702823 1.0 0.0
0.09433962264190188 1.0 0.0
0.0754716981135215 1.0 0.0
0.05660377358514113 1.0 0.0
0.03773584905676075 1.0 0.0
0.01886792452838049 1.0 0.0
0.0 0.9811320754716195 0.0
0.0 0.9622641509432391 0.0
0.0 0.9433962264148587 0.0
0.0 0.9245283018864782 0.0
0.0 0.9056603773580978 0.0
0.0 0.8867924528297173 0.0
0.0 0.8679245283014174 0.0
0.0 0.8490566037732444 0.0
0.0 0.8301886792450734 0.0
0.0 0.8113207547169025 0.0
0.0 0.7924528301887315 0.0
0.0 0.7735849056605606 0.0
0.0 0.7547169811323896 0.0
0.0 0.7358490566042186 0.0
0.0 0.7169811320760476 0.0
0.0 0.6981132075478766 0.0
0.0 0.6792452830197057 0.0
0.0 0.6603773584915346 0.0
0.0 0.6415094339633636 0.0
0.0 0.6226415094351925 0.0
0.0 0.6037735849070215 0.0
0.0 0.5849056603788504 0.0
0.0 0.5660377358506794 0.0
0.0 0.5471698113225083 0.0
0.0 0.5283018867943372 0.0
0.0 0.5094339622661662 0.0
0.0 0.4905660377378905 0.0
0.0 0.4716981132095099 0.0
0.0 0.4528301886811295 0.0
0.0 0.4339622641527489 0.0
0.0 0.4150943396243684 0.0
0.0 0.3962264150959879 0.0
0.0 0.3773584905676074 0.0
0.0 0.358490566039227 0.0
0.0 0.3396226415108468 0.0
0.0 0.3207547169824663 0.0
0.0 0.3018867924540859 0.0
0.0 0.2830188679257056 0.0
0.0 0.2641509433973251 0.0
0.0 0.2452830188689448 0.0
0.0 0.2264150943405645 0.0
0.0 0.2075471698121841 0.0
0.0 0.1886792452838036 0.0
0.0 0.1698113207554234 0.0
0.0 0.150943396227043 0.0
0.0 0.1320754716986625 0.0
0.0 0.1132075471702823 0.0
0.0 0.09433962264190188 0.0
0.0 0.0754716981135215 0.0
0.0 0.05660377358514113 0.0
0.0 0.03773584905676075 0.0
0.0 0.01886792452838049 0.0
0.49961422419268997 0.4984293794066726 0.0
0.7093511500970902 0.706792936500378 0.0
0.29287482782244045 0.7110496278611782 0.0
0.7065208514432915 0.2921137893028175 0.0
0.2917146567058879 0.2951459957249887 0.0
0.5010883512796402 0.783530677658598 0.0
0.2164159732426224 0.5012876322837192 0.0
0.7820505253934122 0.4994927647991782 0.0
0.4969563419356505 0.21663804071479492 0.0
0.8269192007901067 0.8287013252031155 0.0
0.1712682973217082 0.8268730922835856 0.0
0.8299941553097447 0.17180608262880254 0.0
0.17180615988223974 0.17000622072452293 0.0
0.5640959313975822 0.6420224840910225 0.0
0.36076803388570655 0.5671667288006801 0.0
0.641160245161879 0.4320186669377829 0.0
0.4354935082651592 0.36378759861759746 0.0
0.6410454186381067 0.8479832937118897 0.0
0.1518368310809157 0.6410829539811169 0.0
0.8477907051244511 0.3598243790179788 0.0
0.35938579904680457 0.15130729784326102 0.0
0.8497305928919907 0.6399401683101269 0.0
0.3617952267412937 0.8474454291453152 0.0
0.6436051449793575 0.15189469658234833 0.0
0.15079737625026685 0.3588783576988489 0.0
0.6832039587940572 0.5823618751624478 0.0
0.4454396775914624 0.6627381531764 0.0
0.33424594078221964 0.4385872006022409 0.0
0.5773189844856303 0.3195812160927133 0.0
0.5368082180804761 0.8869865896668006 0.0
0.11301341973883329 0.5368082072162796 0.0
0.8863497125425446 0.46278650800142523 0.0
0.46231798559604276 0.1137357048419064 0.0
0.735504344602733 0.8878298811845817 0.0
0.11217246241749894 0.7355045289688809 0.0
0.8876386118329569 0.26464529586215935 0.0
0.26447675721717134 0.11218714573944835 0.0
0.8918893682153743 0.7430319146751548 0.0
0.7378676821853629 0.10938784471235846 0.0
0.2618554236513495 0.8907466135047526 0.0
0.10927139946373736 0.2618885660485004 0.0
0.6036356850091371 0.740958324467786 0.0
0.2594197395873493 0.6024781400358834 0.0
0.7471835282093033 0.3970113006814754 0.0
0.39635295506120277 0.25856270415268773 0.0
0.5973835830959042 0.5282120591728078 0.0
0.5269880475515504 0.40324375384926064 0.0
0.900344051349824 0.09737126935472232 0.0
0.09737116846728401 0.09965601878423913 0.0
0.9027736024298996 0.9004379740924425 0.0
0.09965486244215357 0.9026299600545967 0.0
0.3830054844266893 0.7484876862569074 0.0
0.25074672726321157 0.3828059459383084 0.0
0.9036934196956306 0.5634343341860331 0.0
0.436167023944368 0.903809418557912 0.0
0.5634650142808684 0.09627038765249357 0.0
0.09611428176536896 0.43622888244072316 0.0
0.7383691909253696 0.7977530090605311 0.0
0.20213608094646243 0.7381864461382426 0.0
0.7965379729869333 0.25833485688790847 0.0
0.25825176979143294 0.20343822649683996 0.0
0.8016496201203362 0.7232057683389532 0.0
0.27776554876540255 0.7985644202275013 0.0
0.7230025466734626 0.19888476423555862 0.0
0.20134253349952064 0.2778412830843111 0.0
0.48914355287031674 0.5909586444150075 0.0
0.4113298235007088 0.49483643887222295 0.0
0.7553604068177817 0.6323161440656005 0.0
0.6323326401346647 0.2446343261447706 0.0
0.3558016573651024 0.6535168196958461 0.0
0.6947272998992697 0.49553252027219197 0.0
0.34695271761644664 0.35520182412877976 0.0
0.49374473330545476 0.3082796821038452 0.0
0.8187154539118972 0.9148861354006228 0.0
0.08511383208187207 0.8187154148724425 0.0
0.9150328940734902 0.18133025458140606 0.0
0.18128457425270267 0.0851129709589244 0.0
0.8187403987114168 0.08420346742597412 0.0
0.9157746719419576 0.8186373542270347 0.0
0.08420340483892619 0.18125955209024192 0.0
0.18126035834340148 0.9157847355643594 0.0
0.6491759294498078 0.6582605894876106 0.0
0.518075563238964 0.700155561243168 0.0
0.2994944160935228 0.5182519107636043 0.0
0.6529572976260253 0.35254842454839763 0.0
0.6097401473872117 0.9217208439447089 0.0
0.07827850601264716 0.6097398708442259 0.0
0.9217267277120186 0.3902548071573767 0.0
0.39024121399465406 0.07825838690395835 0.0
0.9257398577009572 0.6657069734842804 0.0
0.6657516430505073 0.07518432263878908 0.0
0.3341866530930919 0.9246109018771522 0.0
0.07542270790545244 0.3342243925275289 0.0
0.8225798016625723 0.5644120390192462 0.0
0.43501894509773303 0.8272239480204406 0.0
0.5644015723185061 0.17743228884395235 0.0
0.1728552698143025 0.4351788286843611 0.0
0.5668992511560398 0.812632221934239 0.0
[...]
POINT_DATA 3798
VECTORS vector double
0.0 0.0 0.0
0.0 0.0 0.0
0.0 0.0 0.0
0.0 0.0 0.0
0.0 0.0 0.0
0.0 0.0 0.0
0.0 0.0 0.0
0.0 0.0 0.0
0.0 0.0 0.0
0.0 0.0 0.0
0.0 0.0 0.0
0.0 0.0 0.0
0.0 0.0 0.0
0.0 0.0 0.0
0.0 0.0 0.0
0.0 0.0 0.0
0.0 0.0 0.0
0.0 0.0 0.0
0.0 0.0 0.0
0.0 0.0 0.0
0.0 0.0 0.0
0.0 0.0 0.0
0.0 0.0 0.0
0.0 0.0 0.0
0.0 0.0 0.0
0.0 0.0 0.0
0.0 0.0 0.0
0.0 0.0 0.0
0.0 0.0 0.0
0.0 0.0 0.0
0.0 0.0 0.0
0.0 0.0 0.0
0.0 0.0 0.0
0.0 0.0 0.0
0.0 0.0 0.0
0.0 0.0 0.0
0.0 0.0 0.0
0.0 0.0 0.0
0.0 0.0 0.0
0.0 0.0 0.0
0.0 0.0 0.0
0.0 0.0 0.0
0.0 0.0 0.0
0.0 0.0 0.0
0.0 0.0 0.0
0.0 0.0 0.0
0.0 0.0 0.0
0.0 0.0 0.0
0.0 0.0 0.0
0.0 0.0 0.0
0.0 0.0 0.0
0.0 0.0 0.0
0.0 0.0 0.0
0.0 0.0 0.0
0.0 0.0 0.0
0.0 0.0 0.0
0.0 0.0 0.0
0.0 0.0 0.0
0.0 0.0 0.0
0.0 0.0 0.0
0.0 0.0 0.0
0.0 0.0 0.0
0.0 0.0 0.0
0.0 0.0 0.0
0.0 0.0 0.0
0.0 0.0 0.0
0.0 0.0 0.0
0.0 0.0 0.0
0.0 0.0 0.0
0.0 0.0 0.0
0.0 0.0 0.0
0.0 0.0 0.0
0.0 0.0 0.0
0.0 0.0 0.0
0.0 0.0 0.0
0.0 0.0 0.0
0.0 0.0 0.0
0.0 0.0 0.0
0.0 0.0 0.0
0.0 0.0 0.0
0.0 0.0 0.0
0.0 0.0 0.0
0.0 0.0 0.0
0.0 0.0 0.0
0.0 0.0 0.0
0.0 0.0 0.0
0.0 0.0 0.0
0.0 0.0 0.0
0.0 0.0 0.0
0.0 0.0 0.0
0.0 0.0 0.0
0.0 0.0 0.0
0.0 0.0 0.0
0.0 0.0 0.0
0.0 0.0 0.0
0.0 0.0 0.0
0.0 0.0 0.0
0.0 0.0 0.0
0.0 0.0 0.0
0.0 0.0 0.0
0.0 0.0 0.0
0.0 0.0 0.0
0.0 0.0 0.0
0.0 0.0 0.0
0.0 0.0 0.0
0.0 0.0 0.0
0.0 0.0 0.0
0.0 0.0 0.0
1.0 0.0 0.0
1.0 0.0 0.0
1.0 0.0 0.0
1.0 0.0 0.0
1.0 0.0 0.0
1.0 0.0 0.0
1.0 0.0 0.0
1.0 0.0 0.0
1.0 0.0 0.0
1.0 0.0 0.0
1.0 0.0 0.0
1.0 0.0 0.0
1.0 0.0 0.0
1.0 0.0 0.0
1.0 0.0 0.0
1.0 0.0 0.0
1.0 0.0 0.0
1.0 0.0 0.0
1.0 0.0 0.0
1.0 0.0 0.0
1.0 0.0 0.0
1.0 0.0 0.0
1.0 0.0 0.0
1.0 0.0 0.0
1.0 0.0 0.0
1.0 0.0 0.0
1.0 0.0 0.0
1.0 0.0 0.0
1.0 0.0 0.0
1.0 0.0 0.0
1.0 0.0 0.0
1.0 0.0 0.0
1.0 0.0 0.0
1.0 0.0 0.0
1.0 0.0 0.0
1.0 0.0 0.0
1.0 0.0 0.0
1.0 0.0 0.0
1.0 0.0 0.0
1.0 0.0 0.0
1.0 0.0 0.0
1.0 0.0 0.0
1.0 0.0 0.0
1.0 0.0 0.0
1.0 0.0 0.0
1.0 0.0 0.0
1.0 0.0 0.0
1.0 0.0 0.0
1.0 0.0 0.0
1.0 0.0 0.0
1.0 0.0 0.0
1.0 0.0 0.0
0.0 0.0 0.0
0.0 0.0 0.0
0.0 0.0 0.0
0.0 0.0 0.0
0.0 0.0 0.0
0.0 0.0 0.0
0.0 0.0 0.0
0.0 0.0 0.0
0.0 0.0 0.0
0.0 0.0 0.0
0.0 0.0 0.0
0.0 0.0 0.0
0.0 0.0 0.0
0.0 0.0 0.0
0.0 0.0 0.0
0.0 0.0 0.0
0.0 0.0 0.0
0.0 0.0 0.0
0.0 0.0 0.0
0.0 0.0 0.0
0.0 0.0 0.0
0.0 0.0 0.0
0.0 0.0 0.0
0.0 0.0 0.0
0.0 0.0 0.0
0.0 0.0 0.0
0.0 0.0 0.0
0.0 0.0 0.0
0.0 0.0 0.0
0.0 0.0 0.0
0.0 0.0 0.0
0.0 0.0 0.0
0.0 0.0 0.0
0.0 0.0 0.0
0.0 0.0 0.0
0.0 0.0 0.0
0.0 0.0 0.0
0.0 0.0 0.0
0.0 0.0 0.0
0.0 0.0 0.0
0.0 0.0 0.0
0.0 0.0 0.0
0.0 0.0 0.0
0.0 0.0 0.0
0.0 0.0 0.0
0.0 0.0 0.0
0.0 0.0 0.0
0.0 0.0 0.0
0.0 0.0 0.0
0.0 0.0 0.0
0.0 0.0 0.0
0.0 0.0 0.0
-0.04474002229 0.00111109664131 0.0
-0.0789542012469 -0.0428494409821 0.0
-0.0734754148546 0.0470775099664 0.0
-0.0203994519714 -0.0121127677629 0.0
-0.0194218629939 0.0124278126576 0.0
-0.0873480754935 0.00383781976449 0.0
-0.0274411542984 0.0358256358368 0.0
-0.0305277533025 -0.0362175135911 0.0
-0.0228792493047 0.000229116425638 0.0
-0.140060342922 -0.101177833745 0.0
-0.107504273067 0.11335310549 0.0
-0.00920578571834 -0.00837272926794 0.0
-0.0091175041497 0.0081084676901 0.0
-0.0658565064818 -0.00904408208446 0.0
-0.0507639673393 0.023357513565 0.0
-0.0333156997854 -0.014958091559 0.0
-0.0302088152415 0.00579238379854 0.0
-0.0935609647737 -0.014013793844 0.0
-0.0354715267077 0.069018677076 0.0
-0.0130133941587 -0.0244120016176 0.0
-0.0182039428484 0.00360943746193 0.0
-0.0381641883101 -0.0734608104198 0.0
-0.0933603063576 0.0255172370327 0.0
-0.0178825067428 -0.0035324905673 0.0
-0.0119024671226 0.023590653312 0.0
-0.0533843121397 -0.0295777099542 0.0
-0.0706751109699 0.0125655697066 0.0
-0.0326593420185 0.01848321313 0.0
-0.0270701929421 -0.0051717290995 0.0
-0.031774367556 8.59532904494e-06 0.0
-0.0149183470497 0.0486400946165 0.0
-0.0122546910581 -0.0381473813154 0.0
-0.0187705278608 0.000695371999058 0.0
-0.0553701955701 -0.0207107791733 0.0
-0.0416839874325 0.106343816959 0.0
-0.00653921202704 -0.0157303838639 0.0
-0.0131743700619 0.00357493678691 0.0
-0.0557032570133 -0.127263663192 0.0
-0.0133501446752 -0.00340050282187 0.0
-0.0626766860213 0.0448193045682 0.0
-0.00605228382865 0.0149690513617 0.0
-0.0855733558815 -0.0150652064704 0.0
-0.0464227180489 0.042949941949 0.0
-0.0230973123083 -0.0221344397837 0.0
-0.0227474099836 0.00561042708245 0.0
-0.0478291312903 -0.0131642491501 0.0
-0.034934191906 -0.00211868006397 0.0
-0.00385753716262 -0.00374806856588 0.0
-0.00375891458842 0.00370806762718 0.0
-0.132659339258 -0.224544484926 0.0
-0.114942824765 0.202067940204 0.0
-0.0850418968724 0.0261021568842 0.0
-0.0221572884254 0.0208568112997 0.0
-0.0154127895922 -0.0561905565347 0.0
0.0240325555234 0.0045418922784 0.0
-0.0180414346007 -0.000834585878848 0.0
-0.00846743616297 0.0324178516085 0.0
-0.113322734803 -0.0478310031079 0.0
-0.0724245196948 0.0794153806681 0.0
-0.0135756363677 -0.013588763892 0.0
-0.0147838267775 0.00846076762897 0.0
-0.0791464563162 -0.0789190495163 0.0
-0.0995076846715 0.0549415374108 0.0
-0.0161270473981 -0.00768895958436 0.0
-0.0135179200177 0.0149327918171 0.0
-0.0552624228552 0.00338201772874 0.0
-0.0426990046924 0.0127982807774 0.0
-0.0570880980555 -0.0497315665088 0.0
-0.0219414990187 -0.00617646582561 0.0
-0.0643509724355 0.0290925084203 0.0
-0.0382331075179 -0.0249886782175 0.0
-0.0265522395209 0.0124351873092 0.0
-0.0271632337207 0.000663303415482 0.0
-0.00668590360783 -0.0405944350801 0.0
-0.0598457008511 0.160084954678 0.0
-0.00352197897353 -0.00901335824176 0.0
-0.00790142301292 0.0029173644341 0.0
-0.0082433526739 -0.00302284717129 0.0
-0.100105362777 -0.202369628157 0.0
-0.00366138567486 0.00868832382959 0.0
-0.0210155282447 0.0848702063056 0.0
-0.0667050563944 -0.0260333334078 0.0
-0.0759431915643 -2.83477118775e-05 0.0
-0.0382692900836 0.0282219002468 0.0
-0.0275109541432 -0.0117645862593 0.0
0.124454486839 -0.00416887889427 0.0
-0.0128670222528 0.0609855347284 0.0
-0.00563567972926 -0.0262599164375 0.0
-0.0158559106856 0.00106418378348 0.0
-0.0183772390002 -0.0831035478689 0.0
-0.0140380573029 -0.00144395031106 0.0
0.110236204358 0.0159176907213 0.0
-0.00421054461594 0.0196826160008 0.0
-0.0298699367197 -0.0522558171731 0.0
-0.0912998793341 0.0138232538909 0.0
-0.0191828037047 -0.00186933309061 0.0
-0.0173715142818 0.0311135800233 0.0
-0.0928606832198 -0.00519896111613 0.0
-0.0306773003035 0.0486722443822 0.0
-0.0195488184988 -0.0307302438581 0.0
-0.0206489027361 0.00235610386878 0.0
-0.0375375738036 0.00587893867954 0.0
-0.0181019448743 -0.0188955426122 0.0
-0.0187227066581 0.00700475863263 0.0
-0.100460299247 -0.02766757158 0.0
-0.053329982588 0.0599041936717 0.0
-0.0408986483945 -0.00822075703657 0.0
0.155566280335 -0.00591978800533 0.0
-0.0164045787785 0.0790736486359 0.0
-0.00400051591655 -0.0187872154762 0.0
-0.0135520379929 0.00148584841203 0.0
-0.0427657392345 -0.0397160415556 0.0
-0.0234783728296 -0.00300102837802 0.0
-0.0574806910684 0.0142659914029 0.0
-0.0785855408569 0.0136472396059 0.0
-0.0273398638469 0.0256539658529 0.0
-0.0556017390988 -0.0174438874067 0.0
-0.0331402222493 -0.00792711602925 0.0
-0.0327183039919 0.0111102234509 0.0
-0.0563057592093 -0.00747253822093 0.0
-0.0514611127502 0.0084008985451 0.0
0.207991984835 -0.00253486276082 0.0
-0.00579786770547 0.0361959318277 0.0
-0.00640410077329 -0.0400591311805 0.0
-0.0159669613059 -7.32575092288e-05 0.0
-0.083686936029 0.00558621206495 0.0
-0.0183657706201 0.0395368372362 0.0
-0.022195950789 -0.0435083191635 0.0
-0.0204056382569 3.27194298155e-05 0.0
-0.105866949818 -0.0259230547484 0.0
-0.0492470330063 0.0840122055198 0.0
-0.011364753603 -0.0184967396563 0.0
-0.0161420173248 0.00514157806609 0.0
-0.0982107307841 -0.109929955646 0.0
-0.113025166367 0.0739820092297 0.0
-0.0126763095299 -0.00677086994593 0.0
-0.00954249908336 0.0122805091847 0.0
-0.0873840194729 0.0403084205255 0.0
-0.0181387616673 0.0167368355977 0.0
-0.0225148826511 0.00928761984714 0.0
-0.0090055768694 -0.058702759981 0.0
-0.0140504522897 -0.000711021051606 0.0
0.251414448893 0.0025035243343 0.0
-0.00346182356236 0.02271669763 0.0
-0.0605567322664 0.0415156056125 0.0
-0.0305148775964 -0.0270634448329 0.0
-0.0263422404516 0.0044187335687 0.0
-0.00136643709766 -0.00126422451661 0.0
-0.00125219711457 0.00131159818174 0.0
-0.0271307295342 -0.289752377589 0.0
-0.070810809176 0.261904522794 0.0
0.270110445477 -0.000204214699595 0.0
-0.00598669204331 0.043770648306 0.0
-0.00417982717346 -0.0294467157404 0.0
-0.0147741864682 0.000330233490557 0.0
0.245682673953 6.82183323041e-05 0.0
-0.0194341253032 0.109476230037 0.0
-0.00246479670612 -0.0108742832973 0.0
-0.00903126475459 0.0014197688809 0.0
-0.0306629291884 -0.132394461577 0.0
-0.00917442763679 -0.0013793320152 0.0
0.209936756602 0.0309415406009 0.0
-0.0021615766941 0.0103509414477 0.0
-0.124992253971 -0.0522874067263 0.0
-0.0742889916249 0.108475593025 0.0
-0.00909261973732 -0.0123916568638 0.0
-0.0121321488817 0.00633251889704 0.0
-0.0540177076594 -0.0924522823228 0.0
-0.0999413724692 0.0398368077048 0.0
-0.0158374429846 -0.00469787966876 0.0
-0.0101676751064 0.0185226147893 0.0
-0.0853497222913 -0.00438559440385 0.0
-0.0381237194659 0.0369276529896 0.0
-0.0236240915281 -0.0156192057725 0.0
-0.0663248220485 0.00068131261164 0.0
-0.0420416260048 0.0207881599153 0.0
-0.080186250552 -0.0270307211339 0.0
-0.0635289233167 -0.0387258107337 0.0
-0.0236834176608 -0.0094550184766 0.0
-0.0767677884832 -0.00955847542147 0.0
-0.0463314478711 0.0325044020239 0.0
-0.0288636589772 -0.0169051391036 0.0
-0.0467747874246 -0.0213900970394 0.0
-0.0307277300167 -0.00241552271393 0.0
0.216437718613 -0.0571494470477 0.0
-0.056439485407 0.196586784353 0.0
-0.0015385596434 -0.00479143086892 0.0
-0.00445931521126 0.00139289335041 0.0
-0.00448931891086 -0.00150915378284 0.0
-0.105417345819 -0.282146100545 0.0
-0.00160839987954 0.0045554832709 0.0
0.108417572398 0.0928522285286 0.0
-0.0753334555425 0.0330000060136 0.0
-0.0265528646217 0.0174501185628 0.0
-0.0241814744394 0.00243964165014 0.0
-0.0643624425054 -0.00419784489119 0.0
-0.0219614387203 0.0583731883308 0.0
-0.0121343496495 -0.0310666055823 0.0
-0.018453297686 0.00176231132895 0.0
-0.0909828340617 -0.057849443675 0.0
-0.0819200946945 0.0612025189477 0.0
-0.0167411142775 -0.0111242203674 0.0
-0.015963726538 0.0116614227176 0.0
-0.0708559782549 -0.0562844291656 0.0
-0.019488719657 -0.00852175273265 0.0
-0.0969234718712 -0.0150251989955 0.0
-0.0414319673817 0.0553553081929 0.0
-0.0183360051189 -0.0241521633031 0.0
-0.0201204348171 0.0044794089944 0.0
-0.015595565835 -0.092461316136 0.0
-0.0104185563821 -0.000981525376451 0.0
0.292527142573 0.00960116731527 0.0
-0.00200681651361 0.0132162283472 0.0
-0.147908084981 -0.123577630302 0.0
-0.114281027029 0.16021347086 0.0
-0.00627655855173 -0.00709852387845 0.0
-0.00710780827095 0.00569065354471 0.0
-0.0944026885004 0.0243331510659 0.0
-0.0178787844312 0.0245174469516 0.0
-0.0404780202181 -0.0162299504808 0.0
-0.0305699672737 0.00188548968042 0.0
-0.0749891077122 0.0212876536448 0.0
-0.108379898785 -0.0741995155527 0.0
-0.0899452978549 0.0831426022376 0.0
-0.0124685679691 -0.0101004722257 0.0
-0.0122986765669 0.00997242334399 0.0
-0.0227125158104 0.0157364317867 0.0
-0.0230846462957 -0.0684028035809 0.0
-0.0319884968804 0.0134550685511 0.0
-0.0176227985671 -0.00175905425718 0.0
-0.00861928097437 0.0275175708126 0.0
-0.0415579090406 -0.0584123597399 0.0
-0.0193485442683 -0.00384325277837 0.0
-0.0407173661041 0.000235152965541 0.0
-0.0440359493419 -0.00595122990385 0.0
-0.0264413040373 0.0078785346106 0.0
-0.0576710447355 -0.0691910844298 0.0
-0.0183939366796 -0.00581623968412 0.0
-0.098291054258 0.0374905613658 0.0
-0.0142190364747 0.019231916266 0.0
-0.0482187093565 0.0160772360086 0.0
-0.00429066479898 -0.0399379546166 0.0
-0.0122747619093 -0.000210305872151 0.0
0.405457192599 0.000842716549523 0.0
-0.00245061576706 0.0234904149374 0.0
-0.0547037462134 0.0311511089109 0.0
-0.0320147840512 -0.0212307610214 0.0
-0.115345063071 -0.147844802354 0.0
-0.113976838734 0.0927450476641 0.0
-0.0101797842188 -0.00536874446664 0.0
-0.00670505537693 0.0101912970258 0.0
-0.0186039602831 0.00760410633202 0.0
-0.0119300008947 0.0400082807606 0.0
-0.0141951105062 -0.0465568271422 0.0
-0.0185419182697 -7.56930891133e-05 0.0
-0.042039955195 0.00658777857722 0.0
-0.0862306856162 0.0158182744752 0.0
-0.0232846044762 0.027105299704 0.0
-0.0572676476004 -0.0157343002495 0.0
-0.0317281686569 0.0837008996483 0.0
-0.00840181951693 -0.0209636221633 0.0
-0.0156020513376 0.00315721481999 0.0
-0.0516777870118 -0.000436916806962 0.0
0.375739522617 0.00278698242506 0.0
-0.010076785682 0.0770642443401 0.0
-0.00187545802782 -0.0124984112225 0.0
-0.00961431952088 0.000948348099212 0.0
-0.0367125374884 0.0145662981176 0.0
0.370563662844 -0.0097300398247 0.0
-0.0065415528806 0.0539577217261 0.0
-0.00192372308523 -0.0176517681675 0.0
-0.0110991763943 0.00042492519713 0.0
-0.0435521280067 -0.0302500421397 0.0
-0.024854489725 -0.0025384796642 0.0
-0.0613818518516 0.0200654219837 0.0
-0.0631396563837 0.00950696424903 0.0
-0.0528311387972 -0.0376382188521 0.0
-0.0242787980732 -0.00565975861126 0.0
-0.119649627849 -0.0615636294586 0.0
-0.0786170246198 0.136348318469 0.0
-0.00631887116189 -0.0101677543856 0.0
-0.00944145245755 0.0050857883785 0.0
-0.0924350191818 -0.039170667993 0.0
-0.0666575795793 0.0588782487435 0.0
-0.017825771233 -0.0148748493202 0.0
-0.0171996744729 0.00959435962975 0.0
-0.149737424178 -0.198290105164 0.0
-0.00677113692811 -0.00442704159975 0.0
-0.111862778907 0.133361967761 0.0
-0.0047554621327 0.00677870419335 0.0
-0.0726780812669 -0.0166884355748 0.0
-0.0362426722617 -0.0325773467222 0.0
-0.0242447054059 -0.000418158272816 0.0
-0.0248752095493 -0.0277237213368 0.0
-0.029019863474 0.0145497036207 0.0
-0.0345002910345 -0.0431828425368 0.0
-0.0219679168714 -0.00150504800017 0.0
-0.0552533607742 0.0237631214194 0.0
-0.0577411984391 -0.00392749374094 0.0
-0.0791844020871 0.005030552897 0.0
-0.075267390832 0.00855715006876 0.0
-0.0308309023857 0.0303724545906 0.0
-0.0327266320395 0.023611184312 0.0
-0.0568992413577 -0.0255572634422 0.0
-0.0297235177628 -0.0123941965206 0.0
-0.0280733846288 -0.00861291387972 0.0
0.414462734694 -0.0106289384579 0.0
-0.0200127336907 0.12130299622 0.0
-0.00117559144797 -0.00662725019366 0.0
-0.00595704797557 0.000866633182816 0.0
-0.00599596634126 -0.000721562361898 0.0
-0.0305648059832 -0.155343935426 0.0
-0.000947279181365 0.00643460935097 0.0
0.340973741323 0.0361125459223 0.0
-0.0878976818428 -0.00947249169948 0.0
-0.0364231574592 0.0460094256285 0.0
-0.00575424439445 -0.0559018296651 0.0
-0.0103642029185 -0.000493639832317 0.0
0.441668870892 0.00151660333661 0.0
-0.00156905273132 0.0153718857814 0.0
-0.0856518623336 0.000626681680697 0.0
-0.0225558876283 0.0468463170154 0.0
-0.019646198141 -0.0372568898236 0.0
-0.0201656847747 0.00099738098705 0.0
0.515865558918 0.00212760616524 0.0
-0.00342941281714 0.0368788333982 0.0
-0.00186880808985 -0.0181823091438 0.0
-0.0101277957034 0.000328582748934 0.0
-0.0372827217155 -0.103384487873 0.0
-0.0157030084 -0.00291556807675 0.0
-0.0737133800915 0.027015159337 0.0
-0.00889338205784 0.0217380797631 0.0
-0.0709885824202 0.0091170241514 0.0
-0.0213603417282 -0.0533456367493 0.0
-0.0136511772871 0.0345576169877 0.0
-0.0193473360272 -0.000947740576973 0.0
-0.0319562356657 -0.063415641366 0.0
-0.0881193752676 0.01834926762 0.0
-0.0189546630207 -0.00238248204427 0.0
-0.0134726015099 0.0282725214413 0.0
-0.0554595994183 0.0492821686318 0.0
-0.0214081622351 0.00745130193385 0.0
-0.0633407111585 -0.155652888114 0.0
-0.0103969685987 -0.00306075967707 0.0
-0.036326083043 0.0579775036003 0.0
-0.00436676457797 0.0117396372574 0.0
-0.0277890005026 0.00277113755297 0.0
-0.0332860026364 -0.0312864892531 0.0
-0.0519842374179 0.134702112749 0.0
-0.00483983745521 -0.0115809067821 0.0
-0.0102868125381 0.00337424810217 0.0
-0.0382905355956 0.010627189634 0.0
-0.0346385702063 -0.00999601963124 0.0
-0.0285634206362 0.0103424912415 0.0
-0.0333572016432 -0.00624503587865 0.0
-0.0225448029005 0.0689656904519 0.0
-0.00879426112027 -0.0261478746701 0.0
-0.0169504096122 0.00214631465 0.0
-0.00097669362751 -0.00211915600047 0.0
-0.00207152819107 0.000916893280524 0.0
0.256006702329 -0.125479155942 0.0
-0.00220396157098 -0.000807998890062 0.0
-0.0750298119563 0.257698801415 0.0
-0.0872751204914 -0.346048101898 0.0
-0.000818149449441 0.00216755322694 0.0
0.196097722965 0.103209304972 0.0
-0.0216149379067 0.00337669458624 0.0
-0.0144480585443 -0.0202711194625 0.0
-0.017232618288 0.00528551041033 0.0
-0.0948660236674 -0.00242432426425 0.0
-0.0329715824766 0.0419065029774 0.0
-0.0717579742518 -0.00435302022927 0.0
-0.0449580800354 0.0256630279076 0.0
-0.0363229966989 -0.0834947375873 0.0
-0.0146195082562 -0.00259381281231 0.0
-0.0203152701608 0.0244169315285 0.0
-0.0059801392967 0.0188269352094 0.0
-0.101436986772 -0.0238252094013 0.0
-0.0479535098682 0.0698086179242 0.0
-0.0242371869626 -0.012366133226 0.0
-0.0242276108684 0.012309188493 0.0
-0.0334844488185 0.00720553402094 0.0
0.0381919059078 -0.00321919006229 0.0
-0.0135438151735 0.0547102435563 0.0
-0.00829833068276 -0.0322042059395 0.0
-0.0173236643472 0.000904308352939 0.0
-0.0943067908053 0.00852737670436 0.0
-0.0229408759418 0.0343891872679 0.0
-0.037526166244 -0.00599827379385 0.0
-0.074950270127 -0.0324138092587 0.0
-0.0218347793668 0.0016546217957 0.0
-0.0236998812143 -0.0346486728191 0.0
-0.0599240624513 -0.0120298655523 0.0
-0.0736889561142 -0.0187588296701 0.0
-0.0346796904568 0.00168773469634 0.0
-0.0864413703231 -0.0220322985379 0.0
-0.0217253866329 -0.019439057555 0.0
-0.0688851955822 0.0394867953611 0.0
-0.0658626891767 -0.0198474555816 0.0
-0.0964893326656 -0.00930806739712 0.0
-0.0335547702405 0.0575793516797 0.0
-0.0159685707078 -0.0284196524161 0.0
-0.0197969235496 0.00309513000955 0.0
-0.0499437642182 0.0374847399221 0.0
-0.0301378107902 -0.0214072777871 0.0
-0.0902162274157 0.0307471661895 0.0
-0.018433331743 0.0204377155685 0.0
-0.0475408283318 -0.049046184836 0.0
-0.0221577522883 -0.00423038808294 0.0
0.551583114933 0.0103960968881 0.0
-0.00147029616303 0.026638929143 0.0
-0.00216777389568 -0.0228927696263 0.0
-0.0101627477458 0.000251764477885 0.0
-0.0151172560165 -0.0171171377974 0.0
-0.0173644842725 0.00721443542414 0.0
-0.0551259298097 0.0088022562836 0.0
-0.108127715337 -0.0343136660687 0.0
-0.0605243251914 0.0722651344188 0.0
-0.0548466047405 -0.0130857721473 0.0
-0.0401811260818 -0.00406176900024 0.0
-0.0423198204108 -0.0116283411187 0.0
-0.0246324024488 0.00613471504473 0.0
-0.0286083949502 0.0211001962644 0.0
-0.051781329761 -0.0222204522466 0.0
-0.0329791894706 -0.00439639156673 0.0
-0.0949790829943 -0.0737126863532 0.0
-0.0941941579836 0.0662564576655 0.0
-0.0144090016911 -0.00939953260746 0.0
-0.0137876748064 0.0124021255956 0.0
-0.074087119796 -0.0947023821494 0.0
-0.106589759719 0.0547195565724 0.0
-0.0150270736442 -0.00612516798514 0.0
-0.0104590543646 0.0155093449458 0.0
-0.026351543039 0.0021662980839 0.0
-0.108218242183 -0.0324713483348 0.0
-0.0565006072202 0.0980310767877 0.0
-0.00948556552916 -0.0156292854225 0.0
-0.0142771689506 0.00527288073284 0.0
0.00258286769841 -0.0135910465722 0.0
-0.0300180283826 0.0930021460755 0.0
-0.00621751919815 -0.0182983351708 0.0
-0.0145216458933 0.00268918617771 0.0
-0.0892713055036 0.0102141992092 0.0
-0.0273117322177 0.0300042927776 0.0
-0.0202983398268 0.00967702115817 0.0
-0.0603316765716 -0.0330642836615 0.0
-0.0266357918492 -0.00762146834093 0.0
-0.0670375895161 0.00584757578633 0.0
-0.0368971270688 0.0204170712868 0.0
0.505447541187 -0.00154939151572 0.0
-0.0048180345018 0.0559769258031 0.0
-0.00107095271787 -0.0120196661578 0.0
-0.00861450018002 0.000420525273516 0.0
-0.0642179869998 0.0513232283459 0.0
-0.0527876656143 0.0185940249093 0.0
-0.00512053648474 -0.0530441917081 0.0
-0.00805755161374 -0.000205542146522 0.0
0.546203790716 0.0105023317094 0.0
-0.000671866638496 0.0109966487133 0.0
0.0904965942044 -0.00540853455182 0.0
-0.0161137582457 0.0703934977491 0.0
-0.00545198397395 -0.0231317018856 0.0