# vtk DataFile Version 2.0
2D Simulation Python
ASCII
DATASET UNSTRUCTURED_GRID
FIELD FieldData 1
NODES 1 2 int
11134 7299

POINTS 11134 double
0.0 1.0 0.0
1.725 1.0 0.0
8.275 1.0 0.0
10.0 1.0 0.0
10.0 0.0 0.0
0.0 0.0 0.0
0.05948275862057954 1.0 0.0
0.1189655172411507 1.0 0.0
0.1784482758617532 1.0 0.0
0.2379310344823185 1.0 0.0
0.2974137931028384 1.0 0.0
0.3568965517233564 1.0 0.0
0.4163793103438745 1.0 0.0
0.475862068964385 1.0 0.0
0.535344827584889 1.0 0.0
0.5948275862053855 1.0 0.0
0.654310344825882 1.0 0.0
0.7137931034463786 1.0 0.0
0.7732758620668752 1.0 0.0
0.8327586206874149 1.0 0.0
0.8922413793081027 1.0 0.0
0.9517241379289384 1.0 0.0
1.011206896549752 1.0 0.0
1.070689655170612 1.0 0.0
1.130172413791474 1.0 0.0
1.189655172412335 1.0 0.0
1.249137931033183 1.0 0.0
1.308620689654105 1.0 0.0
1.368103448274985 1.0 0.0
1.427586206895818 1.0 0.0
1.487068965516628 1.0 0.0
1.546551724137449 1.0 0.0
1.606034482758285 1.0 0.0
1.665517241379139 1.0 0.0
1.784545454545345 1.0 0.0
1.844090909090676 1.0 0.0
1.903636363635991 1.0 0.0
1.963181818181336 1.0 0.0
2.022727272726716 1.0 0.0
2.082272727272112 1.0 0.0
2.141818181817408 1.0 0.0
2.201363636362702 1.0 0.0
2.260909090908037 1.0 0.0
2.320454545453433 1.0 0.0
2.379999999998759 1.0 0.0
2.439545454544053 1.0 0.0
2.499090909089358 1.0 0.0
2.558636363634754 1.0 0.0
2.618181818180109 1.0 0.0
2.677727272725404 1.0 0.0
2.737272727270631 1.0 0.0
2.796818181815906 1.0 0.0
2.856363636361191 1.0 0.0
2.915909090906408 1.0 0.0
2.975454545451703 1.0 0.0
3.034999999997049 1.0 0.0
3.094545454542377 1.0 0.0
3.154090909087591 1.0 0.0
3.21363636363288 1.0 0.0
3.273181818178196 1.0 0.0
3.332727272723555 1.0 0.0
3.392272727268849 1.0 0.0
3.451818181814208 1.0 0.0
3.511363636359524 1.0 0.0
3.570909090904812 1.0 0.0
3.630454545450026 1.0 0.0
3.689999999995355 1.0 0.0
3.749545454540702 1.0 0.0
3.809090909085996 1.0 0.0
3.868636363631291 1.0 0.0
3.928181818176585 1.0 0.0
3.987727272721861 1.0 0.0
4.047272727267021 1.0 0.0
4.106818181812208 1.0 0.0
4.166363636357625 1.0 0.0
4.225909090903122 1.0 0.0
4.285454545448432 1.0 0.0
4.34499999999356 1.0 0.0
4.404545454538917 1.0 0.0
4.464090909084414 1.0 0.0
4.523636363629791 1.0 0.0
4.583181818174936 1.0 0.0
4.642727272720208 1.0 0.0
4.702272727265705 1.0 0.0
4.761818181811142 1.0 0.0
4.821363636356348 1.0 0.0
4.880909090901557 1.0 0.0
4.940454545446997 1.0 0.0
4.999999999992493 1.0 0.0
5.059545454538018 1.0 0.0
5.119090909083717 1.0 0.0
5.17863636362933 1.0 0.0
5.238181818174827 1.0 0.0
5.297727272720321 1.0 0.0
5.357272727265989 1.0 0.0
5.416818181811662 1.0 0.0
5.476363636357158 1.0 0.0
5.535909090902654 1.0 0.0
5.595454545448262 1.0 0.0
5.65499999999396 1.0 0.0
5.714545454539491 1.0 0.0
5.774090909085032 1.0 0.0
5.83363636363093 1.0 0.0
5.893181818176673 1.0 0.0
5.952727272722171 1.0 0.0
6.012272727267668 1.0 0.0
6.071818181813491 1.0 0.0
6.131363636359353 1.0 0.0
6.190909090904849 1.0 0.0
6.250454545450346 1.0 0.0
6.309999999996052 1.0 0.0
6.369545454541951 1.0 0.0
6.429090909087529 1.0 0.0
6.488636363633026 1.0 0.0
6.548181818178611 1.0 0.0
6.60772727272451 1.0 0.0
6.667272727270209 1.0 0.0
6.726818181815705 1.0 0.0
6.786363636361202 1.0 0.0
6.845909090907071 1.0 0.0
6.905454545452889 1.0 0.0
6.964999999998385 1.0 0.0
7.024545454543881 1.0 0.0
7.084090909089378 1.0 0.0
7.143636363634876 1.0 0.0
7.20318181818037 1.0 0.0
7.262727272725868 1.0 0.0
7.322272727271365 1.0 0.0
7.381818181816859 1.0 0.0
7.441363636362357 1.0 0.0
7.500909090907854 1.0 0.0
7.560454545453348 1.0 0.0
7.619999999998846 1.0 0.0
7.679545454544343 1.0 0.0
7.739090909089839 1.0 0.0
7.798636363635335 1.0 0.0
7.858181818180832 1.0 0.0
7.917727272726328 1.0 0.0
7.977272727271824 1.0 0.0
8.036818181817441 1.0 0.0
8.09636363636334 1.0 0.0
8.155909090909008 1.0 0.0
8.215454545454504 1.0 0.0
8.334482758620055 1.0 0.0
8.393965517240051 1.0 0.0
8.453448275859904 1.0 0.0
8.51293103448045 1.0 0.0
8.572413793100301 1.0 0.0
8.631896551720153 1.0 0.0
8.6913793103407 1.0 0.0
8.750862068961245 1.0 0.0
8.810344827581792 1.0 0.0
8.869827586202339 1.0 0.0
8.929310344822884 1.0 0.0
8.988793103443431 1.0 0.0
9.048275862063978 1.0 0.0
9.107758620684523 1.0 0.0
9.16724137930507 1.0 0.0
9.226724137925617 1.0 0.0
9.286206896546162 1.0 0.0
9.345689655167401 1.0 0.0
9.405172413788595 1.0 0.0
9.46465517240963 1.0 0.0
9.524137931030667 1.0 0.0
9.583620689651704 1.0 0.0
9.643103448272907 1.0 0.0
9.702586206894148 1.0 0.0
9.762068965515388 1.0 0.0
9.821551724136627 1.0 0.0
9.881034482757867 1.0 0.0
9.940517241378963 1.0 0.0
10.0 0.9411764705879904 0.0
10.0 0.882352941175982 0.0
10.0 0.8235294117645425 0.0
10.0 0.764705882353186 0.0
10.0 0.7058823529418295 0.0
10.0 0.6470588235304731 0.0
10.0 0.5882352941191167 0.0
10.0 0.5294117647077601 0.0
10.0 0.4705882352960771 0.0
10.0 0.4117647058840672 0.0
10.0 0.3529411764720576 0.0
10.0 0.2941176470600479 0.0
10.0 0.2352941176480381 0.0
10.0 0.1764705882360285 0.0
10.0 0.1176470588240187 0.0
10.0 0.05882352941200908 0.0
9.940119760479043 0.0 0.0
9.880239520958083 0.0 0.0
9.820359281437126 0.0 0.0
9.760479041916167 0.0 0.0
9.70059880239521 0.0 0.0
9.640718562874252 0.0 0.0
9.580838323353293 0.0 0.0
9.520958083832335 0.0 0.0
9.461077844311376 0.0 0.0
9.401197604790418 0.0 0.0
9.34131736526946 0.0 0.0
9.281437125748502 0.0 0.0
9.221556886227543 0.0 0.0
9.161676646706585 0.0 0.0
9.101796407185628 0.0 0.0
9.041916167664668 0.0 0.0
8.982035928143711 0.0 0.0
8.922155688622752 0.0 0.0
8.862275449101794 0.0 0.0
8.802395209580837 0.0 0.0
8.742514970059878 0.0 0.0
8.68263473053892 0.0 0.0
8.622754491017961 0.0 0.0
8.562874251497004 0.0 0.0
8.502994011976044 0.0 0.0
8.443113772455087 0.0 0.0
8.38323353293413 0.0 0.0
8.32335329341317 0.0 0.0
8.263473053892213 0.0 0.0
8.203592814371254 0.0 0.0
8.143712574850296 0.0 0.0
8.083832335329337 0.0 0.0
8.02395209580838 0.0 0.0
7.964071856287422 0.0 0.0
7.904191616766464 0.0 0.0
7.844311377245505 0.0 0.0
7.784431137724548 0.0 0.0
7.72455089820359 0.0 0.0
7.664670658682631 0.0 0.0
7.604790419161674 0.0 0.0
7.544910179640715 0.0 0.0
7.485029940119757 0.0 0.0
7.425149700598799 0.0 0.0
7.36526946107784 0.0 0.0
7.305389221556883 0.0 0.0
7.245508982035925 0.0 0.0
7.185628742514966 0.0 0.0
7.125748502994009 0.0 0.0
7.065868263473051 0.0 0.0
7.005988023952092 0.0 0.0
6.946107784431135 0.0 0.0
6.886227544910177 0.0 0.0
6.826347305389219 0.0 0.0
6.766467065868261 0.0 0.0
6.706586826347303 0.0 0.0
6.646706586826344 0.0 0.0
6.586826347305387 0.0 0.0
6.526946107784428 0.0 0.0
6.46706586826347 0.0 0.0
6.407185628742512 0.0 0.0
6.347305389221554 0.0 0.0
6.287425149700596 0.0 0.0
6.227544910179638 0.0 0.0
6.16766467065868 0.0 0.0
6.107784431137722 0.0 0.0
6.047904191616764 0.0 0.0
5.988023952095805 0.0 0.0
5.928143712574848 0.0 0.0
5.868263473053889 0.0 0.0
5.808383233532932 0.0 0.0
5.748502994011973 0.0 0.0
5.688622754491016 0.0 0.0
5.628742514970057 0.0 0.0
5.568862275449099 0.0 0.0
5.508982035928141 0.0 0.0
5.449101796407183 0.0 0.0
5.389221556886225 0.0 0.0
5.329341317365267 0.0 0.0
5.269461077844309 0.0 0.0
5.209580838323351 0.0 0.0
5.149700598802393 0.0 0.0
5.089820359281434 0.0 0.0
5.029940119760477 0.0 0.0
4.970059880239518 0.0 0.0
4.91017964071856 0.0 0.0
4.850299401197602 0.0 0.0
4.790419161676644 0.0 0.0
4.730538922155686 0.0 0.0
4.670658682634729 0.0 0.0
4.610778443113769 0.0 0.0
4.550898203592812 0.0 0.0
4.491017964071854 0.0 0.0
4.431137724550896 0.0 0.0
4.371257485029938 0.0 0.0
4.31137724550898 0.0 0.0
4.251497005988022 0.0 0.0
4.191616766467064 0.0 0.0
4.131736526946106 0.0 0.0
4.071856287425147 0.0 0.0
4.01197604790419 0.0 0.0
3.952095808383231 0.0 0.0
3.892215568862274 0.0 0.0
3.832335329341316 0.0 0.0
3.772455089820358 0.0 0.0
3.712574850299399 0.0 0.0
3.652694610778441 0.0 0.0
3.592814371257483 0.0 0.0
3.532934131736526 0.0 0.0
3.473053892215567 0.0 0.0
3.41317365269461 0.0 0.0
3.353293413173652 0.0 0.0
3.293413173652693 0.0 0.0
3.233532934131736 0.0 0.0
3.173652694610777 0.0 0.0
3.113772455089819 0.0 0.0
3.053892215568861 0.0 0.0
2.994011976047903 0.0 0.0
2.934131736526945 0.0 0.0
2.874251497005988 0.0 0.0
2.814371257485028 0.0 0.0
2.754491017964071 0.0 0.0
2.694610778443113 0.0 0.0
2.634730538922155 0.0 0.0
2.574850299401197 0.0 0.0
2.514970059880238 0.0 0.0
2.455089820359281 0.0 0.0
2.395209580838323 0.0 0.0
2.335329341317365 0.0 0.0
2.275449101796406 0.0 0.0
2.215568862275448 0.0 0.0
2.15568862275449 0.0 0.0
2.095808383233532 0.0 0.0
2.035928143712574 0.0 0.0
1.976047904191615 0.0 0.0
1.916167664670658 0.0 0.0
1.8562874251497 0.0 0.0
1.796407185628741 0.0 0.0
1.736526946107784 0.0 0.0
1.676646706586826 0.0 0.0
1.616766467065867 0.0 0.0
1.55688622754491 0.0 0.0
1.49700598802395 0.0 0.0
1.437125748502995 0.0 0.0
1.377245508982035 0.0 0.0
1.317365269461078 0.0 0.0
1.257485029940119 0.0 0.0
1.19760479041916 0.0 0.0
1.137724550898204 0.0 0.0
1.077844311377245 0.0 0.0
1.017964071856287 0.0 0.0
0.958083832335328 0.0 0.0
0.8982035928143723 0.0 0.0
0.8383233532934131 0.0 0.0
0.7784431137724539 0.0 0.0
0.7185628742514965 0.0 0.0
0.658682634730539 0.0 0.0
0.5988023952095816 0.0 0.0
0.5389221556886223 0.0 0.0
0.4790419161676631 0.0 0.0
0.4191616766467074 0.0 0.0
0.3592814371257482 0.0 0.0
0.2994011976047908 0.0 0.0
0.2395209580838316 0.0 0.0
0.1796407185628741 0.0 0.0
0.1197604790419167 0.0 0.0
0.05988023952095922 0.0 0.0
0.0 0.0588235294116454 0.0
0.0 0.1176470588233168 0.0
0.0 0.1764705882349203 0.0
0.0 0.2352941176465135 0.0
0.0 0.2941176470581066 0.0
0.0 0.3529411764696997 0.0
0.0 0.4117647058812929 0.0
0.0 0.4705882352928861 0.0
0.0 0.5294117647046425 0.0
0.0 0.5882352941165623 0.0
0.0 0.6470588235284821 0.0
0.0 0.7058823529404019 0.0
0.0 0.7647058823523216 0.0
0.0 0.8235294117642414 0.0
0.0 0.8823529411761613 0.0
0.0 0.941176470588081 0.0
9.496671432578891 0.5021202775764965 0.0
0.503328567417594 0.502120277573701 0.0
8.960949321310713 0.5028360638807294 0.0
1.039050678683441 0.5028360638815293 0.0
8.421726050444477 0.5013914029598456 0.0
1.578273949553219 0.5013914029599852 0.0
2.110012838156869 0.501717680037117 0.0
[...]
POINT_DATA 11134
VECTORS vector double
1.0 0.0 0.0
0.0 0.0 0.0
0.0 0.0 0.0
0.0 0.0 0.0
1.1841453289 -1.3114100664e-06 0.0
1.0 0.0 0.0
0.0 0.0 0.0
0.0 0.0 0.0
0.0 0.0 0.0
0.0 0.0 0.0
0.0 0.0 0.0
0.0 0.0 0.0
0.0 0.0 0.0
0.0 0.0 0.0
0.0 0.0 0.0
0.0 0.0 0.0
0.0 0.0 0.0
0.0 0.0 0.0
0.0 0.0 0.0
0.0 0.0 0.0
0.0 0.0 0.0
0.0 0.0 0.0
0.0 0.0 0.0
0.0 0.0 0.0
0.0 0.0 0.0
0.0 0.0 0.0
0.0 0.0 0.0
0.0 0.0 0.0
0.0 0.0 0.0
0.0 0.0 0.0
0.0 0.0 0.0
0.0 0.0 0.0
0.0 0.0 0.0
0.0 0.0 0.0
0.0 0.0 0.0
0.0 0.0 0.0
0.0 0.0 0.0
0.0 0.0 0.0
0.0 0.0 0.0
0.0 0.0 0.0
0.0 0.0 0.0
0.0 0.0 0.0
0.0 0.0 0.0
0.0 0.0 0.0
0.0 0.0 0.0
0.0 0.0 0.0
0.0 0.0 0.0
0.0 0.0 0.0
0.0 0.0 0.0
0.0 0.0 0.0
0.0 0.0 0.0
0.0 0.0 0.0
0.0 0.0 0.0
0.0 0.0 0.0
0.0 0.0 0.0
0.0 0.0 0.0
0.0 0.0 0.0
0.0 0.0 0.0
0.0 0.0 0.0
0.0 0.0 0.0
0.0 0.0 0.0
0.0 0.0 0.0
0.0 0.0 0.0
0.0 0.0 0.0
0.0 0.0 0.0
0.0 0.0 0.0
0.0 0.0 0.0
0.0 0.0 0.0
0.0 0.0 0.0
0.0 0.0 0.0
0.0 0.0 0.0
0.0 0.0 0.0
0.0 0.0 0.0
0.0 0.0 0.0
0.0 0.0 0.0
0.0 0.0 0.0
0.0 0.0 0.0
0.0 0.0 0.0
0.0 0.0 0.0
0.0 0.0 0.0
0.0 0.0 0.0
0.0 0.0 0.0
0.0 0.0 0.0
0.0 0.0 0.0
0.0 0.0 0.0
0.0 0.0 0.0
0.0 0.0 0.0
0.0 0.0 0.0
0.0 0.0 0.0
0.0 0.0 0.0
0.0 0.0 0.0
0.0 0.0 0.0
0.0 0.0 0.0
0.0 0.0 0.0
0.0 0.0 0.0
0.0 0.0 0.0
0.0 0.0 0.0
0.0 0.0 0.0
0.0 0.0 0.0
0.0 0.0 0.0
0.0 0.0 0.0
0.0 0.0 0.0
0.0 0.0 0.0
0.0 0.0 0.0
0.0 0.0 0.0
0.0 0.0 0.0
0.0 0.0 0.0
0.0 0.0 0.0
0.0 0.0 0.0
0.0 0.0 0.0
0.0 0.0 0.0
0.0 0.0 0.0
0.0 0.0 0.0
0.0 0.0 0.0
0.0 0.0 0.0
0.0 0.0 0.0
0.0 0.0 0.0
0.0 0.0 0.0
0.0 0.0 0.0
0.0 0.0 0.0
0.0 0.0 0.0
0.0 0.0 0.0
0.0 0.0 0.0
0.0 0.0 0.0
0.0 0.0 0.0
0.0 0.0 0.0
0.0 0.0 0.0
0.0 0.0 0.0
0.0 0.0 0.0
0.0 0.0 0.0
0.0 0.0 0.0
0.0 0.0 0.0
0.0 0.0 0.0
0.0 0.0 0.0
0.0 0.0 0.0
0.0 0.0 0.0
0.0 0.0 0.0
0.0 0.0 0.0
0.0 0.0 0.0
0.0 0.0 0.0
0.0 0.0 0.0
0.0 0.0 0.0
0.0 0.0 0.0
0.0 0.0 0.0
0.0 0.0 0.0
0.0 0.0 0.0
0.0 0.0 0.0
0.0 0.0 0.0
0.0 0.0 0.0
0.0 0.0 0.0
0.0 0.0 0.0
0.0 0.0 0.0
0.0 0.0 0.0
0.0 0.0 0.0
0.0 0.0 0.0
0.0 0.0 0.0
0.0 0.0 0.0
0.0 0.0 0.0
0.0 0.0 0.0
0.0 0.0 0.0
0.0 0.0 0.0
0.0 0.0 0.0
0.0 0.0 0.0
0.0 0.0 0.0
0.0 0.0 0.0
0.0 0.0 0.0
0.0 0.0 0.0
0.0 0.0 0.0
0.0 0.0 0.0
0.0 0.0 0.0
0.0 0.0 0.0
0.292008056393 0.0491217771284 0.0
0.541396729506 0.0373520201392 0.0
0.735131944096 0.0266393028882 0.0
0.904422729954 0.0153136467878 0.0
1.03462150641 0.0113275890035 0.0
1.09464439932 0.0116850332343 0.0
1.1346130242 0.00476080490812 0.0
1.16477944264 0.00258133568943 0.0
1.17666725764 0.00154091735415 0.0
1.18233101044 0.000584898467804 0.0
1.1846618408 0.000201808224851 0.0
1.18527517619 4.50762249544e-05 0.0
1.18514551806 -4.137310735e-05 0.0
1.18469122995 -7.45445162475e-05 0.0
1.18524179326 -5.60480140443e-06 0.0
1.18491527397 1.12274629455e-05 0.0
1.18500662975 -5.44737142365e-06 0.0
1.18495861005 7.23304948928e-07 0.0
1.18489343616 -4.29909845479e-05 0.0
1.18468003833 -3.79022603732e-05 0.0
1.18469265106 2.59416922238e-05 0.0
1.18455341506 -2.36385294703e-05 0.0
1.18500544695 -2.26124621301e-05 0.0
1.18419015258 2.00637214272e-06 0.0
1.1847869038 -2.8915846894e-05 0.0
1.18429832113 -3.80810112457e-05 0.0
1.18394783027 -5.03360079579e-06 0.0
1.18456383658 7.11869655465e-06 0.0
1.18414328454 -3.01563256679e-05 0.0
1.18395882589 -3.9960448066e-05 0.0
1.18378724827 -1.21050586198e-05 0.0
1.18373441744 -3.56106448498e-05 0.0
1.18365045042 3.37047712296e-05 0.0
1.18430155311 1.20013067136e-05 0.0
1.18384473804 -2.17267370029e-05 0.0
1.18378992159 8.55957131279e-06 0.0
1.18381560239 3.52761300568e-06 0.0
1.18391527014 5.12938158119e-05 0.0
1.18397334633 1.0097506004e-05 0.0
1.18449628178 2.88275287725e-06 0.0
1.1840684422 5.57267605192e-06 0.0
1.18401565479 -8.75520221775e-06 0.0
1.1838877076 -3.25327885253e-05 0.0
1.1839241093 2.35583316982e-05 0.0
1.18407961865 6.24660387034e-05 0.0
1.18417799959 -3.02631645668e-05 0.0
1.1840701348 -3.75202113694e-05 0.0
1.18435327185 3.83760051675e-05 0.0
1.18400234324 -2.67425192992e-06 0.0
1.18449482006 -3.22222995223e-05 0.0
1.18295270973 6.19416606071e-07 0.0
1.1843149922 1.31311986426e-05 0.0
1.18400858069 -2.95473707652e-05 0.0
1.18395506859 8.87261955363e-06 0.0
1.18392728301 -1.81469581797e-05 0.0
1.18382053532 -4.34915618394e-05 0.0
1.1841330021 3.80149538944e-05 0.0
1.18365411471 -1.80275663904e-05 0.0
1.18405111187 -6.67146398251e-05 0.0
1.18242296893 2.13578413785e-06 0.0
1.18389908308 3.1963827924e-05 0.0
1.18365649061 1.34308645253e-05 0.0
1.18371475244 1.72745815395e-05 0.0
1.18367053112 -3.582360029e-05 0.0
1.18357159485 -2.46016234271e-05 0.0
1.18386521263 -2.42964925799e-06 0.0
1.18333183574 1.67054167943e-05 0.0
1.18394255162 -2.03112060312e-05 0.0
1.18239179441 1.47744024199e-06 0.0
1.18380731494 -1.86180646174e-05 0.0
1.18342390678 4.17935198743e-07 0.0
1.18340275593 7.91581086053e-06 0.0
1.18333611166 -3.86130599611e-05 0.0
1.18331090764 9.1401382566e-06 0.0
1.18364236451 -1.6274096784e-05 0.0
1.18306710247 1.44609965249e-05 0.0
1.18359318116 -3.8963051424e-05 0.0
1.18203731515 8.2082006473e-06 0.0
1.1833728506 -4.99765572904e-05 0.0
1.18288943398 -2.30105300478e-05 0.0
1.18283146529 4.1820511741e-06 0.0
1.18275606711 -2.3986465842e-05 0.0
1.18267603122 -3.4754087018e-05 0.0
1.18256637323 -1.72063200874e-05 0.0
1.18292612551 -3.17213634819e-05 0.0
1.18238141778 -6.83206661279e-06 0.0
1.18225012202 -5.008171408e-06 0.0
1.18236311143 -6.9901526935e-06 0.0
1.18212606862 6.3063321289e-06 0.0
1.18248444993 -4.21370495129e-05 0.0
1.18205326422 -1.32688981637e-07 0.0
1.18211057735 2.98237115347e-06 0.0
1.18214280995 4.8378248282e-06 0.0
1.18216917709 -1.06917967501e-05 0.0
1.18231231153 2.5062802985e-05 0.0
1.18225049956 1.58371017634e-06 0.0
1.18212142264 -2.45747095804e-05 0.0
1.18204233506 -2.52367611294e-05 0.0
1.18208342971 1.625772335e-05 0.0
1.18269526534 5.16944305184e-05 0.0
1.18209247318 -7.65532143354e-06 0.0
1.1823477085 6.62449122935e-06 0.0
1.18228208874 2.66926497916e-05 0.0
1.18247387464 2.16024868866e-05 0.0
1.18313173835 6.80440393749e-05 0.0
1.18286333772 1.80146963782e-05 0.0
1.18301774173 5.11133330781e-05 0.0
1.18310855271 -1.34883795467e-05 0.0
1.1831360187 3.54692007966e-05 0.0
1.1836596443 2.49927001275e-06 0.0
1.18368201384 4.27561577179e-05 0.0
1.18226101198 -8.32760592843e-06 0.0
1.18379624558 1.80034874899e-05 0.0
1.18333169773 3.39994267016e-06 0.0
1.18385235398 3.23196545082e-06 0.0
1.18351297393 -6.07317183575e-06 0.0
1.18351915452 2.67269035481e-05 0.0
1.1835412496 -1.70257598392e-05 0.0
1.18356603182 1.56732940145e-05 0.0
1.18397072045 1.18186193312e-05 0.0
1.18251176308 -8.82013527245e-07 0.0
1.1841697444 3.96204177291e-05 0.0
1.18355639388 -1.72182690289e-05 0.0
1.18413124821 3.63798166956e-06 0.0
1.18382815794 2.79267785589e-05 0.0
1.1839004517 3.33800676847e-05 0.0
1.18396825323 -3.10125769961e-06 0.0
1.18404454931 2.80644842592e-05 0.0
1.18448027637 2.19236437532e-05 0.0
1.183094147 -6.04427352738e-06 0.0
1.1847220281 8.04136276993e-05 0.0
1.18431497767 -6.99957545303e-06 0.0
1.18487922853 1.93981312166e-05 0.0
1.18466116691 4.76672863844e-05 0.0
1.1848243222 4.32258686244e-05 0.0
1.18490459329 -1.2509513088e-05 0.0
1.18486098944 -1.21304976805e-05 0.0
1.18506671477 -6.18950877816e-05 0.0
1.18352272389 7.79562124697e-06 0.0
1.18492539836 -5.09301653205e-06 0.0
1.1842867081 -2.84928464961e-05 0.0
1.18434585733 -0.00019758089879 0.0
1.18339403815 -0.000123643032207 0.0
1.18286016634 -0.000150537199313 0.0
1.18183927905 -0.000189509245297 0.0
1.180836717 -0.000326037258955 0.0
1.17914944933 -0.000677851378838 0.0
1.17662311543 0.000122656857035 0.0
1.17574920563 -0.000758005848267 0.0
1.17279945256 -0.000381364969961 0.0
1.16965858151 -0.00118473787994 0.0
1.16538565753 -0.000907093293869 0.0
1.16207166121 -0.000772872864833 0.0
1.15708320299 -0.000911911641222 0.0
1.15234836935 -0.0015599286051 0.0
1.14744359641 -0.00090341879779 0.0
1.14130291489 -0.000958490977076 0.0
1.13675065897 -0.00118651082205 0.0
1.12979144767 -0.0017844668205 0.0
1.12356445314 -0.000974448579221 0.0
1.11782617274 -0.00176600539165 0.0
1.11272667472 -0.00154694306267 0.0
1.10576247139 -0.00120586333113 0.0
1.10080774584 -0.00131177405278 0.0
1.09371636897 -0.0019754753644 0.0
1.08611560734 -0.0012062326392 0.0
1.07983023171 -0.00150840850456 0.0
1.07447087053 -0.0012507513027 0.0
1.06696264738 -0.0011471838632 0.0
1.0616900082 -0.00156780693886 0.0
1.05407597175 -0.0023962372696 0.0
1.0466998928 -0.000875421017015 0.0
1.04119062243 -0.000793420320278 0.0
1.03547469068 -0.00254372520935 0.0
1.0276758043 -0.000699663998825 0.0
1.02232477042 -0.00178452080911 0.0
1.01639709717 -0.000822593282738 0.0
1.01185404722 -0.00108719392192 0.0
1.0081969021 -0.00081755641771 0.0
1.00438928646 -0.000664527462593 0.0
1.0023769134 -0.000353816080546 0.0
1.00081912383 -0.000211639704166 0.0
1.0 0.0 0.0
1.0 0.0 0.0
1.0 0.0 0.0
1.0 0.0 0.0
1.0 0.0 0.0
1.0 0.0 0.0
1.0 0.0 0.0
1.0 0.0 0.0
1.0 0.0 0.0
1.0 0.0 0.0
1.0 0.0 0.0
1.0 0.0 0.0
1.0 0.0 0.0
1.0 0.0 0.0
1.0 0.0 0.0
1.0 0.0 0.0
1.1709878074 -0.00090969598049 0.0
1.07587642069 -0.0673276039367 0.0
1.17036623767 -0.000209664673932 0.0
1.16297002532 -0.057842990205 0.0
1.17050595272 0.000440392912655 0.0
1.190437163 -0.0320724730919 0.0
1.17727504094 -0.00790003339712 0.0
1.17090724522 -0.000588570143601 0.0
1.17392129983 0.000568748880302 0.0
1.17175333793 -0.000536007297167 0.0
1.17177527515 0.00141768473363 0.0
1.17175508847 -0.000630674989065 0.0
1.17142709857 0.000157078904591 0.0
1.17167207263 -0.000591003831391 0.0
1.17184917352 0.000319409867344 0.0
1.1698430675 -0.00026726737677 0.0
1.16933166562 0.00127449560455 0.0
1.16390392024 -0.000379317553052 0.0
1.06614910255 -0.00142635062858 0.0
1.17693224991 -0.0895052265386 0.0
1.18465028682 -0.000441947709407 0.0
1.08050805521 -0.0390471871035 0.0
1.06309826878 -0.000513409174258 0.0
1.13276848362 -0.0394698191879 0.0
1.18389503916 0.000551246632243 0.0
1.06213245091 0.00146845920778 0.0
1.07927918018 -0.00897821944128 0.0
1.06264387762 0.000801646211926 0.0
1.06304262079 -0.000958510001718 0.0
1.18349272806 -0.000420528386331 0.0
1.18388219818 -2.98786667184e-05 0.0
1.06096064654 0.00294449907468 0.0
1.06221340683 -0.000266109995186 0.0
1.06215623965 0.0016300269621 0.0
1.06279597695 -0.000371899269988 0.0
1.06274278224 0.000910899422556 0.0
1.05888166079 -0.00125966403295 0.0
1.05884854296 0.00219999499051 0.0
1.18366136071 -9.42951072575e-05 0.0
1.18384643652 0.000417974078953 0.0
1.18387037391 -0.000180055443153 0.0
1.18532267091 0.000701244844093 0.0
1.18612944777 -0.00246448194894 0.0
1.18414258559 -0.000218603465865 0.0
1.18380822551 6.81543766247e-06 0.0
1.17888835179 -0.0178003651724 0.0
1.14472516624 -0.030954670531 0.0
1.18400512084 0.000119031713732 0.0
1.18227740752 -0.000107315957338 0.0
1.18281415182 -4.70099922891e-05 0.0
1.02755172139 -0.00275635894517 0.0
1.02754118757 0.00197945935976 0.0
1.09995888179 -0.11473198563 0.0
1.01858939391 0.00153520518461 0.0
1.18493228861 -0.000330996329122 0.0
1.01678315201 -0.0259255930719 0.0
0.949675091544 -0.000642048800712 0.0
1.07195658548 -0.0532889870898 0.0
0.928733674151 -0.000888018840168 0.0
0.957818861187 -0.0131632320489 0.0
1.18405309482 0.000259561248218 0.0
1.18406867833 0.000185039499482 0.0
1.18392194297 -0.000232335348441 0.0
1.18234111365 0.000530929521135 0.0
0.949743546331 -0.00164877268364 0.0
0.94951731641 -0.00144851684989 0.0
0.94506905094 0.00201574368839 0.0
0.947605025911 -0.00237568045221 0.0
0.947150505963 0.00179971499216 0.0
0.947783685786 -0.00244722567044 0.0
0.948460600092 0.000306027920305 0.0
0.948202469123 -0.00226963753033 0.0
0.948298227021 0.00098709298515 0.0
1.18231859195 -0.000228466535048 0.0
1.18490003736 0.000570163036845 0.0
1.18416650237 -0.000224173376597 0.0
1.18607368133 -2.43073186872e-05 0.0
1.18441543824 -0.000226057365299 0.0
0.941748172922 0.00144959175288 0.0
0.940796046871 -0.000164123210839 0.0
1.18276607286 -0.00657689097857 0.0
1.18495974293 -0.000268642306258 0.0
1.18413815471 -0.000197233556813 0.0
1.1020432205 -0.0285920067404 0.0
1.18473165251 0.000299247563118 0.0
1.15916494013 -0.020934961781 0.0
0.948092329566 0.00175305096469 0.0
1.17445968503 -0.113308636008 0.0
1.18469982689 -0.000393226606484 0.0
1.04296695157 -0.0284082406555 0.0
0.892759635192 0.00226360078091 0.0
1.18283970614 -3.51563892071e-05 0.0
1.01951989324 -0.0442499212594 0.0
1.1681641757 -0.000140083640393 0.0
1.16813070137 -0.000989475204947 0.0
1.16726870345 0.000438609215748 0.0
1.16919818205 0.00117479886663 0.0
1.17178597987 3.23471059788e-05 0.0
1.16913807783 -0.000601215917885 0.0
1.17095826703 0.000424340498396 0.0
1.1713532178 1.89065302548e-05 0.0
1.17160812225 0.000483971108359 0.0
1.18723255959 -0.0417646344573 0.0
1.17112875401 0.000103333233945 0.0
1.1869906524 -0.022118760043 0.0
1.17198807244 0.00139157170245 0.0
1.1714601012 4.29947290769e-05 0.0
1.17450123573 -0.00107647675333 0.0
1.17154541272 -0.000159176359205 0.0
1.13684173669 -0.0644270615668 0.0
1.17068976047 -0.000742841224184 0.0
1.18431075676 2.85137409561e-05 0.0
1.11499773417 -0.0185082547353 0.0
1.18322115333 0.000151341930865 0.0
1.183021382 -0.00018634580026 0.0
1.18343917689 0.000155968851058 0.0
1.18340727921 -3.98644258272e-05 0.0
1.18442078553 0.00030451521175 0.0
1.1835966756 -5.16985420782e-05 0.0
1.1847116404 -0.000880410641278 0.0
1.18393834236 2.40200935335e-05 0.0
1.17450833725 -0.00864466167964 0.0
1.13766537279 -0.0172919632612 0.0
1.18351444523 0.000199285743822 0.0
0.768304649586 0.00183013933007 0.0
0.933383699849 -0.0498718215289 0.0
0.759177823352 0.000111038041471 0.0
0.766043195575 -0.001885958483 0.0
0.750656232374 0.0018575374894 0.0
0.782737381727 -0.0135067102416 0.0
0.825368350304 -0.0236649394346 0.0
0.755780784889 0.00130387261255 0.0
0.755462786267 0.000898876320053 0.0
0.760771829117 0.000125389690936 0.0
0.757049082931 5.18001110652e-05 0.0
0.760278708061 -0.000455498040233 0.0
0.756724679701 0.000829968260662 0.0
0.759641227598 0.00104926919738 0.0
0.752865764226 0.000910266075141 0.0
0.756087211058 0.00077865992785 0.0
0.759006316198 -0.000261047732212 0.0
0.760271068814 0.00116981490439 0.0
0.754146744753 0.000513415364728 0.0
0.754572663951 -0.000290545720675 0.0
0.756618018821 0.000118305524265 0.0
0.756558263105 0.000736949595312 0.0
0.758469847401 -0.000267337694593 0.0
0.756588692943 -0.000451006595631 0.0
0.758158394269 -0.00223365265607 0.0
0.758128900401 0.00259045679405 0.0
1.18239943355 -8.41007062971e-05 0.0
1.16377849298 -0.00094328060275 0.0
1.11632896151 -0.0737257810219 0.0
1.18227358969 0.000119897656497 0.0
1.16440434305 -0.000955586751987 0.0
1.16873091955 -0.0027407331803 0.0
1.16445788688 2.52976090503e-05 0.0
1.16587844444 0.00122783010219 0.0
1.16256623215 -4.26987827698e-05 0.0
1.16245629317 0.000717953513904 0.0
1.17575263198 -0.012897809039 0.0
1.16396747081 -0.000231092539455 0.0
1.16292213747 -0.000484954942439 0.0
1.16290279991 -0.000382504469716 0.0
1.16330003642 0.000552429177768 0.0
1.18521361451 -0.05146985324 0.0
1.16322528533 0.00038300986843 0.0
0.725698315902 0.00262100371526 0.0
0.726073281796 -0.000486688684213 0.0
1.1842563739 -0.00026606739381 0.0
1.07692503333 -0.0195992131992 0.0
1.12550849794 -0.153882381585 0.0
0.759324651816 0.00165446104974 0.0
0.742673261464 0.00831662789093 0.0
0.985139381151 -0.0715329743262 0.0
1.18457836712 0.000115732153973 0.0
1.16274720809 -0.0123200866995 0.0
1.18394300113 -0.000144179910496 0.0
1.18318437824 -0.00258789716668 0.0
1.18367472714 -9.21880614167e-05 0.0
1.18506075035 0.00022008411964 0.0
1.18456813657 -0.000122922278883 0.0
1.00484994514 -0.00893160008384 0.0
1.18336481752 -0.000155434465965 0.0
1.18389412277 0.000223833281722 0.0
1.18353026672 -0.000184128752521 0.0
1.18361786892 9.97329676117e-05 0.0
1.18268516254 -0.000236041955539 0.0
1.18374646116 0.000175983103635 0.0
1.18293540483 0.000349788134716 0.0
1.18379855299 4.3707705073e-05 0.0
1.13338079619 -0.037326493085 0.0
0.728084501046 0.00180119951047 0.0
0.729991122813 -0.00266266994782 0.0
1.18386997789 -0.000113741571296 0.0
1.18463665221 -0.0120241358304 0.0
1.18470188688 -0.000190579615942 0.0
1.05682595768 -0.019367256767 0.0
1.18376161201 0.000308501813084 0.0
1.16397167811 -0.0307386281275 0.0
1.18345443186 -0.000122332176439 0.0
1.18581098804 -0.000703492634857 0.0
1.18320788969 -9.34761434925e-05 0.0
1.1840126329 0.000815901107255 0.0
1.18295272448 -9.22855694105e-05 0.0
1.18284597091 0.000112167776856 0.0
1.18296439991 -4.21346562142e-06 0.0
0.718884474031 0.002194305258 0.0
0.695403342196 0.00298968826569 0.0
1.18266074512 0.00011419271184 0.0
1.18183589806 -0.000171432878313 0.0
0.702827910099 0.00415364063667 0.0
1.11721103565 -0.122076854895 0.0
1.18502516256 -0.000292855947929 0.0
1.0222105217 -0.0153737827469 0.0
1.18261820685 -0.000184436689912 0.0
1.18227328552 0.000578302263846 0.0
1.18152177401 -0.00014707468485 0.0
1.18129701719 -0.000198068942083 0.0
1.18282056882 0.000450702748205 0.0
1.18253785658 8.52254432941e-05 0.0
1.18240208954 -0.000576195622455 0.0
1.18299390581 0.000778861195983 0.0
1.18262573428 -0.00034925980742 0.0
1.1068390927 -0.00044524633918 0.0
1.1827281409 -0.0748758552917 0.0
1.18479283607 0.000615180004033 0.0
1.18280197515 -0.000286367159131 0.0
1.18591595973 -0.00556209400074 0.0
1.18350387418 -0.000497145184228 0.0
1.10538063683 -0.000581542684947 0.0
1.10489838641 -0.000615419790835 0.0
1.1056029193 0.000522122656505 0.0
1.10426940954 0.00239798412372 0.0
1.15502308757 -0.0355297011307 0.0
1.10288273933 0.00178121062391 0.0
1.1347026073 -0.0198106366853 0.0
1.10439398682 0.00104258916554 0.0
1.10549889015 0.000371167864163 0.0
1.10543065305 -0.000377792528284 0.0
1.10547804232 0.000389790167984 0.0
1.10999514226 0.000451780470294 0.0
1.10914641266 0.000337552883672 0.0
1.06788113757 -0.047842039248 0.0
1.18400589295 -0.000712619032707 0.0
1.10629294604 0.000416384700937 0.0
1.11035335678 -0.000962437010447 0.0
1.15050699471 -0.000169601907356 0.0
1.0622006807 -0.0739233317486 0.0
1.02103971719 -0.0539137244209 0.0
1.1071621446 -0.000327071445358 0.0
1.00515120959 -0.0170808060647 0.0
1.18432671335 -0.000164448338491 0.0
1.1851537815 -0.000491607249183 0.0
1.03744226474 -0.0390831241861 0.0
1.18201745191 0.000807664248554 0.0
1.18204048217 -0.000346232351649 0.0
1.11012514359 0.00289770484525 0.0
1.11103673473 -0.00176680277584 0.0
1.18365452211 0.000218139485432 0.0
1.17986497647 -0.0265035737454 0.0
1.11819991186 -0.0448356585982 0.0
1.18328035656 -0.000458780003924 0.0
1.07734021728 -0.00274330058818 0.0
1.07957212148 -0.000422308081473 0.0
1.07624403793 -0.00228781118378 0.0
1.07577920672 0.00339935587583 0.0
1.07665625226 -0.00214993149431 0.0
1.07640665294 0.00238339886113 0.0
1.07726287073 -0.00158935327394 0.0
1.077154395 0.000957770457713 0.0
1.07742951915 0.00135600825947 0.0
1.08744050897 -0.00740818182493 0.0
1.07841484897 0.00149762848304 0.0
1.15146308139 -0.0520156058335 0.0
1.06476866687 -0.00135816604461 0.0
1.1697379708 0.000167137844782 0.0
1.17065839155 7.79969939382e-05 0.0
1.12784430367 -0.0893735445504 0.0
1.13259576528 -0.000635601621605 0.0
1.12116696209 -0.013134394966 0.0
1.18432936813 0.000126362331217 0.0
1.06559523064 0.00135591666249 0.0
1.12983736893 -0.109972396209 0.0
1.09703384322 -0.0135047183977 0.0
1.18391931083 8.53547441033e-05 0.0
1.18216215899 3.83350022486e-05 0.0
1.18217099908 6.53933712459e-05 0.0
1.18179780359 -9.00340031533e-05 0.0
1.18209047379 -9.91437057993e-05 0.0
1.18292309549 0.000252456566992 0.0
1.1823306966 -0.000117711584513 0.0
1.18360276617 -0.000196632113844 0.0
1.17735100724 -0.00383535833489 0.0
1.18359024064 -8.05751114295e-05 0.0
1.14490307588 -0.0117212722213 0.0
1.18455467528 3.33329035505e-05 0.0
0.601815840562 -0.00145830763346 0.0
0.699569531744 -0.0252950439763 0.0
0.58837391584 0.00424290330476 0.0
0.589820366435 -0.00203714609241 0.0
0.536001827071 -0.00495265067821 0.0
0.53883925547 -0.0012092500935 0.0
0.595780523814 -0.00281821991533 0.0
0.599191391036 -0.000794718635924 0.0
0.601700811933 -0.000136949770088 0.0
0.606345417958 -0.00275795060555 0.0
0.606060164176 -0.00123866189615 0.0
0.606795462935 -0.00212766756032 0.0