# vtk DataFile Version 2.0
2D Simulation Python
ASCII
DATASET UNSTRUCTURED_GRID
FIELD FieldData 1
NODES 1 2 int
14968 7299

POINTS 14968 double
0.0 1.0 0.0
1.725 1.0 0.0
8.275 1.0 0.0
10.0 1.0 0.0
10.0 0.0 0.0
0.0 0.0 0.0
0.05948275862057954 1.0 0.0
0.1189655172411507 1.0 0.0
0.1784482758617532 1.0 0.0
0.2379310344823185 1.0 0.0
0.2974137931028384 1.0 0.0
0.3568965517233564 1.0 0.0
0.4163793103438745 1.0 0.0
0.475862068964385 1.0 0.0
0.535344827584889 1.0 0.0
0.5948275862053855 1.0 0.0
0.654310344825882 1.0 0.0
0.7137931034463786 1.0 0.0
0.7732758620668752 1.0 0.0
0.8327586206874149 1.0 0.0
0.8922413793081027 1.0 0.0
0.9517241379289384 1.0 0.0
1.011206896549752 1.0 0.0
1.070689655170612 1.0 0.0
1.130172413791474 1.0 0.0
1.189655172412335 1.0 0.0
1.249137931033183 1.0 0.0
1.308620689654105 1.0 0.0
1.368103448274985 1.0 0.0
1.427586206895818 1.0 0.0
1.487068965516628 1.0 0.0
1.546551724137449 1.0 0.0
1.606034482758285 1.0 0.0
1.665517241379139 1.0 0.0
0.02974137931029072 1.0 0.0
0.08922413793086324 1.0 0.0
0.1487068965514534 1.0 0.0
0.208189655172049 1.0 0.0
0.2676724137925698 1.0 0.0
0.3271551724130939 1.0 0.0
0.3866379310336222 1.0 0.0
0.4461206896541293 1.0 0.0
0.5056034482746439 1.0 0.0
0.5650862068951479 1.0 0.0
0.624568965515645 1.0 0.0
0.6840517241361357 1.0 0.0
0.7435344827566197 1.0 0.0
0.8030172413771515 1.0 0.0
0.8624999999976763 1.0 0.0
0.9219827586185091 1.0 0.0
0.9814655172393557 1.0 0.0
1.040948275860181 1.0 0.0
1.100431034481038 1.0 0.0
1.159913793101895 1.0 0.0
1.219396551722753 1.0 0.0
1.278879310343654 1.0 0.0
1.338362068964579 1.0 0.0
1.397844827585388 1.0 0.0
1.457327586206215 1.0 0.0
1.516810344826985 1.0 0.0
1.576293103447828 1.0 0.0
1.635775862068708 1.0 0.0
1.695258620689603 1.0 0.0
1.784545454545345 1.0 0.0
1.844090909090676 1.0 0.0
1.903636363635991 1.0 0.0
1.963181818181336 1.0 0.0
2.022727272726716 1.0 0.0
2.082272727272112 1.0 0.0
2.141818181817408 1.0 0.0
2.201363636362702 1.0 0.0
2.260909090908037 1.0 0.0
2.320454545453433 1.0 0.0
2.379999999998759 1.0 0.0
2.439545454544053 1.0 0.0
2.499090909089358 1.0 0.0
2.558636363634754 1.0 0.0
2.618181818180109 1.0 0.0
2.677727272725404 1.0 0.0
2.737272727270631 1.0 0.0
2.796818181815906 1.0 0.0
2.856363636361191 1.0 0.0
2.915909090906408 1.0 0.0
2.975454545451703 1.0 0.0
3.034999999997049 1.0 0.0
3.094545454542377 1.0 0.0
3.154090909087591 1.0 0.0
3.21363636363288 1.0 0.0
3.273181818178196 1.0 0.0
3.332727272723555 1.0 0.0
3.392272727268849 1.0 0.0
3.451818181814208 1.0 0.0
3.511363636359524 1.0 0.0
3.570909090904812 1.0 0.0
3.630454545450026 1.0 0.0
3.689999999995355 1.0 0.0
3.749545454540702 1.0 0.0
3.809090909085996 1.0 0.0
3.868636363631291 1.0 0.0
3.928181818176585 1.0 0.0
3.987727272721861 1.0 0.0
4.047272727267021 1.0 0.0
4.106818181812208 1.0 0.0
4.166363636357625 1.0 0.0
4.225909090903122 1.0 0.0
4.285454545448432 1.0 0.0
4.34499999999356 1.0 0.0
4.404545454538917 1.0 0.0
4.464090909084414 1.0 0.0
4.523636363629791 1.0 0.0
4.583181818174936 1.0 0.0
4.642727272720208 1.0 0.0
4.702272727265705 1.0 0.0
4.761818181811142 1.0 0.0
4.821363636356348 1.0 0.0
4.880909090901557 1.0 0.0
4.940454545446997 1.0 0.0
4.999999999992493 1.0 0.0
5.059545454538018 1.0 0.0
5.119090909083717 1.0 0.0
5.17863636362933 1.0 0.0
5.238181818174827 1.0 0.0
5.297727272720321 1.0 0.0
5.357272727265989 1.0 0.0
5.416818181811662 1.0 0.0
5.476363636357158 1.0 0.0
5.535909090902654 1.0 0.0
5.595454545448262 1.0 0.0
5.65499999999396 1.0 0.0
5.714545454539491 1.0 0.0
5.774090909085032 1.0 0.0
5.83363636363093 1.0 0.0
5.893181818176673 1.0 0.0
5.952727272722171 1.0 0.0
6.012272727267668 1.0 0.0
6.071818181813491 1.0 0.0
6.131363636359353 1.0 0.0
6.190909090904849 1.0 0.0
6.250454545450346 1.0 0.0
6.309999999996052 1.0 0.0
6.369545454541951 1.0 0.0
6.429090909087529 1.0 0.0
6.488636363633026 1.0 0.0
6.548181818178611 1.0 0.0
6.60772727272451 1.0 0.0
6.667272727270209 1.0 0.0
6.726818181815705 1.0 0.0
6.786363636361202 1.0 0.0
6.845909090907071 1.0 0.0
6.905454545452889 1.0 0.0
6.964999999998385 1.0 0.0
7.024545454543881 1.0 0.0
7.084090909089378 1.0 0.0
7.143636363634876 1.0 0.0
7.20318181818037 1.0 0.0
7.262727272725868 1.0 0.0
7.322272727271365 1.0 0.0
7.381818181816859 1.0 0.0
7.441363636362357 1.0 0.0
7.500909090907854 1.0 0.0
7.560454545453348 1.0 0.0
7.619999999998846 1.0 0.0
7.679545454544343 1.0 0.0
7.739090909089839 1.0 0.0
7.798636363635335 1.0 0.0
7.858181818180832 1.0 0.0
7.917727272726328 1.0 0.0
7.977272727271824 1.0 0.0
8.036818181817441 1.0 0.0
8.09636363636334 1.0 0.0
8.155909090909008 1.0 0.0
8.215454545454504 1.0 0.0
1.754772727272673 1.0 0.0
1.814318181818009 1.0 0.0
1.873863636363333 1.0 0.0
1.933409090908672 1.0 0.0
1.992954545454031 1.0 0.0
2.052499999999414 1.0 0.0
2.112045454544734 1.0 0.0
2.171590909090055 1.0 0.0
2.231136363635354 1.0 0.0
2.290681818180733 1.0 0.0
2.35022727272609 1.0 0.0
2.409772727271409 1.0 0.0
2.469318181816729 1.0 0.0
2.528863636362083 1.0 0.0
2.588409090907435 1.0 0.0
2.647954545452764 1.0 0.0
2.70749999999803 1.0 0.0
2.767045454543256 1.0 0.0
2.826590909088563 1.0 0.0
2.886136363633805 1.0 0.0
2.945681818179043 1.0 0.0
3.005227272724398 1.0 0.0
3.064772727269736 1.0 0.0
3.124318181814993 1.0 0.0
3.183863636360237 1.0 0.0
3.243409090905498 1.0 0.0
3.302954545450869 1.0 0.0
3.362499999996201 1.0 0.0
3.422045454541534 1.0 0.0
3.481590909086889 1.0 0.0
3.541136363632178 1.0 0.0
3.600681818177425 1.0 0.0
3.660227272722711 1.0 0.0
3.719772727268038 1.0 0.0
3.779318181813342 1.0 0.0
3.838863636358643 1.0 0.0
3.898409090903943 1.0 0.0
3.957954545449228 1.0 0.0
4.017499999994459 1.0 0.0
4.077045454539567 1.0 0.0
4.136590909084866 1.0 0.0
4.196136363630398 1.0 0.0
4.255681818175789 1.0 0.0
4.31522727272101 1.0 0.0
4.374772727266199 1.0 0.0
4.434318181811665 1.0 0.0
4.493863636357126 1.0 0.0
4.55340909090234 1.0 0.0
4.612954545447561 1.0 0.0
4.672499999992919 1.0 0.0
4.732045454538429 1.0 0.0
4.791590909083769 1.0 0.0
4.851136363628941 1.0 0.0
4.910681818174305 1.0 0.0
4.970227272719745 1.0 0.0
5.029772727265215 1.0 0.0
5.089318181810858 1.0 0.0
5.148863636356518 1.0 0.0
5.208409090902078 1.0 0.0
5.267954545447563 1.0 0.0
5.32749999999314 1.0 0.0
5.387045454538812 1.0 0.0
5.446590909084395 1.0 0.0
5.506136363629908 1.0 0.0
5.565681818175434 1.0 0.0
5.625227272721118 1.0 0.0
5.68477272726672 1.0 0.0
5.744318181812282 1.0 0.0
5.803863636357981 1.0 0.0
5.863409090903753 1.0 0.0
5.922954545449448 1.0 0.0
5.98249999999492 1.0 0.0
6.042045454540572 1.0 0.0
6.10159090908641 1.0 0.0
6.161136363632073 1.0 0.0
6.220681818177569 1.0 0.0
6.280227272723183 1.0 0.0
6.339772727268974 1.0 0.0
6.399318181814714 1.0 0.0
6.45886363636027 1.0 0.0
6.518409090905834 1.0 0.0
6.577954545451583 1.0 0.0
6.637499999997363 1.0 0.0
6.697045454542931 1.0 0.0
6.756590909088454 1.0 0.0
6.8161363636342 1.0 0.0
6.875681818179999 1.0 0.0
6.935227272725616 1.0 0.0
6.994772727271133 1.0 0.0
7.054318181816615 1.0 0.0
7.113863636362105 1.0 0.0
7.173409090907585 1.0 0.0
7.232954545453119 1.0 0.0
7.292499999998594 1.0 0.0
7.352045454544166 1.0 0.0
7.411590909089607 1.0 0.0
7.471136363635079 1.0 0.0
7.530681818180621 1.0 0.0
7.590227272726104 1.0 0.0
7.649772727271595 1.0 0.0
7.709318181817098 1.0 0.0
7.768863636362564 1.0 0.0
7.828409090908048 1.0 0.0
7.88795454545358 1.0 0.0
7.947499999999069 1.0 0.0
8.007045454544631 1.0 0.0
8.066590909090369 1.0 0.0
8.126136363636165 1.0 0.0
8.185681818181749 1.0 0.0
8.245227272727199 1.0 0.0
8.334482758620055 1.0 0.0
8.393965517240051 1.0 0.0
8.453448275859904 1.0 0.0
8.51293103448045 1.0 0.0
8.572413793100301 1.0 0.0
8.631896551720153 1.0 0.0
8.6913793103407 1.0 0.0
8.750862068961245 1.0 0.0
8.810344827581792 1.0 0.0
8.869827586202339 1.0 0.0
8.929310344822884 1.0 0.0
8.988793103443431 1.0 0.0
9.048275862063978 1.0 0.0
9.107758620684523 1.0 0.0
9.16724137930507 1.0 0.0
9.226724137925617 1.0 0.0
9.286206896546162 1.0 0.0
9.345689655167401 1.0 0.0
9.405172413788595 1.0 0.0
9.46465517240963 1.0 0.0
9.524137931030667 1.0 0.0
9.583620689651704 1.0 0.0
9.643103448272907 1.0 0.0
9.702586206894148 1.0 0.0
9.762068965515388 1.0 0.0
9.821551724136627 1.0 0.0
9.881034482757867 1.0 0.0
9.940517241378963 1.0 0.0
8.304741379310085 1.0 0.0
8.364224137930028 1.0 0.0
8.423706896549978 1.0 0.0
8.48318965517026 1.0 0.0
8.542672413790376 1.0 0.0
8.602155172410113 1.0 0.0
8.661637931030402 1.0 0.0
8.721120689651029 1.0 0.0
8.78060344827138 1.0 0.0
8.84008620689213 1.0 0.0
8.899568965512502 1.0 0.0
8.959051724133055 1.0 0.0
9.018534482753648 1.0 0.0
9.078017241374363 1.0 0.0
9.137499999994688 1.0 0.0
9.196982758615343 1.0 0.0
9.256465517235805 1.0 0.0
9.315948275856895 1.0 0.0
9.375431034477998 1.0 0.0
9.434913793099138 1.0 0.0
9.494396551720149 1.0 0.0
9.55387931034146 1.0 0.0
9.613362068962203 1.0 0.0
9.672844827583809 1.0 0.0
9.73232758620488 1.0 0.0
9.791810344826095 1.0 0.0
9.851293103447228 1.0 0.0
9.910775862068462 1.0 0.0
9.970258620689481 1.0 0.0
10.0 0.9411764705879904 0.0
10.0 0.882352941175982 0.0
10.0 0.8235294117645425 0.0
10.0 0.764705882353186 0.0
10.0 0.7058823529418295 0.0
10.0 0.6470588235304731 0.0
10.0 0.5882352941191167 0.0
10.0 0.5294117647077601 0.0
10.0 0.4705882352960771 0.0
10.0 0.4117647058840672 0.0
10.0 0.3529411764720576 0.0
10.0 0.2941176470600479 0.0
10.0 0.2352941176480381 0.0
10.0 0.1764705882360285 0.0
10.0 0.1176470588240187 0.0
10.0 0.05882352941200908 0.0
10.0 0.9705882352939621 0.0
10.0 0.9117647058820033 0.0
10.0 0.8529411764702793 0.0
10.0 0.7941176470588772 0.0
10.0 0.7352941176474532 0.0
10.0 0.6764705882361493 0.0
10.0 0.6176470588248275 0.0
10.0 0.5588235294134586 0.0
10.0 0.5000000000020175 0.0
10.0 0.4411764705900721 0.0
10.0 0.3823529411780624 0.0
10.0 0.3235294117660528 0.0
10.0 0.264705882354043 0.0
10.0 0.2058823529420333 0.0
10.0 0.1470588235300236 0.0
10.0 0.0882352941180139 0.0
10.0 0.02941176470600448 0.0
9.940119760479043 0.0 0.0
9.880239520958083 0.0 0.0
9.820359281437126 0.0 0.0
9.760479041916167 0.0 0.0
9.70059880239521 0.0 0.0
9.640718562874252 0.0 0.0
9.580838323353293 0.0 0.0
[...]
POINT_DATA 14968
VECTORS vector double
1.0 0.0 0.0
0.0 0.0 0.0
0.0 0.0 0.0
0.0 0.0 0.0
1.09000453639 0.0 0.0
1.0 0.0 0.0
0.0 0.0 0.0
0.0 0.0 0.0
0.0 0.0 0.0
0.0 0.0 0.0
0.0 0.0 0.0
0.0 0.0 0.0
0.0 0.0 0.0
0.0 0.0 0.0
0.0 0.0 0.0
0.0 0.0 0.0
0.0 0.0 0.0
0.0 0.0 0.0
0.0 0.0 0.0
0.0 0.0 0.0
0.0 0.0 0.0
0.0 0.0 0.0
0.0 0.0 0.0
0.0 0.0 0.0
0.0 0.0 0.0
0.0 0.0 0.0
0.0 0.0 0.0
0.0 0.0 0.0
0.0 0.0 0.0
0.0 0.0 0.0
0.0 0.0 0.0
0.0 0.0 0.0
0.0 0.0 0.0
0.0 0.0 0.0
0.0 0.0 0.0
0.0 0.0 0.0
0.0 0.0 0.0
0.0 0.0 0.0
0.0 0.0 0.0
0.0 0.0 0.0
0.0 0.0 0.0
0.0 0.0 0.0
0.0 0.0 0.0
0.0 0.0 0.0
0.0 0.0 0.0
0.0 0.0 0.0
0.0 0.0 0.0
0.0 0.0 0.0
0.0 0.0 0.0
0.0 0.0 0.0
0.0 0.0 0.0
0.0 0.0 0.0
0.0 0.0 0.0
0.0 0.0 0.0
0.0 0.0 0.0
0.0 0.0 0.0
0.0 0.0 0.0
0.0 0.0 0.0
0.0 0.0 0.0
0.0 0.0 0.0
0.0 0.0 0.0
0.0 0.0 0.0
0.0 0.0 0.0
0.0 0.0 0.0
0.0 0.0 0.0
0.0 0.0 0.0
0.0 0.0 0.0
0.0 0.0 0.0
0.0 0.0 0.0
0.0 0.0 0.0
0.0 0.0 0.0
0.0 0.0 0.0
0.0 0.0 0.0
0.0 0.0 0.0
0.0 0.0 0.0
0.0 0.0 0.0
0.0 0.0 0.0
0.0 0.0 0.0
0.0 0.0 0.0
0.0 0.0 0.0
0.0 0.0 0.0
0.0 0.0 0.0
0.0 0.0 0.0
0.0 0.0 0.0
0.0 0.0 0.0
0.0 0.0 0.0
0.0 0.0 0.0
0.0 0.0 0.0
0.0 0.0 0.0
0.0 0.0 0.0
0.0 0.0 0.0
0.0 0.0 0.0
0.0 0.0 0.0
0.0 0.0 0.0
0.0 0.0 0.0
0.0 0.0 0.0
0.0 0.0 0.0
0.0 0.0 0.0
0.0 0.0 0.0
0.0 0.0 0.0
0.0 0.0 0.0
0.0 0.0 0.0
0.0 0.0 0.0
0.0 0.0 0.0
0.0 0.0 0.0
0.0 0.0 0.0
0.0 0.0 0.0
0.0 0.0 0.0
0.0 0.0 0.0
0.0 0.0 0.0
0.0 0.0 0.0
0.0 0.0 0.0
0.0 0.0 0.0
0.0 0.0 0.0
0.0 0.0 0.0
0.0 0.0 0.0
0.0 0.0 0.0
0.0 0.0 0.0
0.0 0.0 0.0
0.0 0.0 0.0
0.0 0.0 0.0
0.0 0.0 0.0
0.0 0.0 0.0
0.0 0.0 0.0
0.0 0.0 0.0
0.0 0.0 0.0
0.0 0.0 0.0
0.0 0.0 0.0
0.0 0.0 0.0
0.0 0.0 0.0
0.0 0.0 0.0
0.0 0.0 0.0
0.0 0.0 0.0
0.0 0.0 0.0
0.0 0.0 0.0
0.0 0.0 0.0
0.0 0.0 0.0
0.0 0.0 0.0
0.0 0.0 0.0
0.0 0.0 0.0
0.0 0.0 0.0
0.0 0.0 0.0
0.0 0.0 0.0
0.0 0.0 0.0
0.0 0.0 0.0
0.0 0.0 0.0
0.0 0.0 0.0
0.0 0.0 0.0
0.0 0.0 0.0
0.0 0.0 0.0
0.0 0.0 0.0
0.0 0.0 0.0
0.0 0.0 0.0
0.0 0.0 0.0
0.0 0.0 0.0
0.0 0.0 0.0
0.0 0.0 0.0
0.0 0.0 0.0
0.0 0.0 0.0
0.0 0.0 0.0
0.0 0.0 0.0
0.0 0.0 0.0
0.0 0.0 0.0
0.0 0.0 0.0
0.0 0.0 0.0
0.0 0.0 0.0
0.0 0.0 0.0
0.0 0.0 0.0
0.0 0.0 0.0
0.0 0.0 0.0
0.0 0.0 0.0
0.0 0.0 0.0
0.0 0.0 0.0
0.0 0.0 0.0
0.0 0.0 0.0
0.0 0.0 0.0
0.0 0.0 0.0
0.0 0.0 0.0
0.0 0.0 0.0
0.0 0.0 0.0
0.0 0.0 0.0
0.0 0.0 0.0
0.0 0.0 0.0
0.0 0.0 0.0
0.0 0.0 0.0
0.0 0.0 0.0
0.0 0.0 0.0
0.0 0.0 0.0
0.0 0.0 0.0
0.0 0.0 0.0
0.0 0.0 0.0
0.0 0.0 0.0
0.0 0.0 0.0
0.0 0.0 0.0
0.0 0.0 0.0
0.0 0.0 0.0
0.0 0.0 0.0
0.0 0.0 0.0
0.0 0.0 0.0
0.0 0.0 0.0
0.0 0.0 0.0
0.0 0.0 0.0
0.0 0.0 0.0
0.0 0.0 0.0
0.0 0.0 0.0
0.0 0.0 0.0
0.0 0.0 0.0
0.0 0.0 0.0
0.0 0.0 0.0
0.0 0.0 0.0
0.0 0.0 0.0
0.0 0.0 0.0
0.0 0.0 0.0
0.0 0.0 0.0
0.0 0.0 0.0
0.0 0.0 0.0
0.0 0.0 0.0
0.0 0.0 0.0
0.0 0.0 0.0
0.0 0.0 0.0
0.0 0.0 0.0
0.0 0.0 0.0
0.0 0.0 0.0
0.0 0.0 0.0
0.0 0.0 0.0
0.0 0.0 0.0
0.0 0.0 0.0
0.0 0.0 0.0
0.0 0.0 0.0
0.0 0.0 0.0
0.0 0.0 0.0
0.0 0.0 0.0
0.0 0.0 0.0
0.0 0.0 0.0
0.0 0.0 0.0
0.0 0.0 0.0
0.0 0.0 0.0
0.0 0.0 0.0
0.0 0.0 0.0
0.0 0.0 0.0
0.0 0.0 0.0
0.0 0.0 0.0
0.0 0.0 0.0
0.0 0.0 0.0
0.0 0.0 0.0
0.0 0.0 0.0
0.0 0.0 0.0
0.0 0.0 0.0
0.0 0.0 0.0
0.0 0.0 0.0
0.0 0.0 0.0
0.0 0.0 0.0
0.0 0.0 0.0
0.0 0.0 0.0
0.0 0.0 0.0
0.0 0.0 0.0
0.0 0.0 0.0
0.0 0.0 0.0
0.0 0.0 0.0
0.0 0.0 0.0
0.0 0.0 0.0
0.0 0.0 0.0
0.0 0.0 0.0
0.0 0.0 0.0
0.0 0.0 0.0
0.0 0.0 0.0
0.0 0.0 0.0
0.0 0.0 0.0
0.0 0.0 0.0
0.0 0.0 0.0
0.0 0.0 0.0
0.0 0.0 0.0
0.0 0.0 0.0
0.0 0.0 0.0
0.0 0.0 0.0
0.0 0.0 0.0
0.0 0.0 0.0
0.0 0.0 0.0
0.0 0.0 0.0
0.0 0.0 0.0
0.0 0.0 0.0
0.0 0.0 0.0
0.0 0.0 0.0
0.0 0.0 0.0
0.0 0.0 0.0
0.0 0.0 0.0
0.0 0.0 0.0
0.0 0.0 0.0
0.0 0.0 0.0
0.0 0.0 0.0
0.0 0.0 0.0
0.0 0.0 0.0
0.0 0.0 0.0
0.0 0.0 0.0
0.0 0.0 0.0
0.0 0.0 0.0
0.0 0.0 0.0
0.0 0.0 0.0
0.0 0.0 0.0
0.0 0.0 0.0
0.0 0.0 0.0
0.0 0.0 0.0
0.0 0.0 0.0
0.0 0.0 0.0
0.0 0.0 0.0
0.0 0.0 0.0
0.0 0.0 0.0
0.0 0.0 0.0
0.0 0.0 0.0
0.0 0.0 0.0
0.0 0.0 0.0
0.0 0.0 0.0
0.0 0.0 0.0
0.0 0.0 0.0
0.0 0.0 0.0
0.0 0.0 0.0
0.0 0.0 0.0
0.0 0.0 0.0
0.0 0.0 0.0
0.0 0.0 0.0
0.0 0.0 0.0
0.0 0.0 0.0
0.0 0.0 0.0
0.0 0.0 0.0
0.0 0.0 0.0
0.0 0.0 0.0
0.0 0.0 0.0
0.0 0.0 0.0
0.0 0.0 0.0
0.0 0.0 0.0
0.0 0.0 0.0
0.0 0.0 0.0
0.0 0.0 0.0
0.0 0.0 0.0
0.0 0.0 0.0
0.0 0.0 0.0
0.0 0.0 0.0
0.0 0.0 0.0
0.0 0.0 0.0
0.475139421889 0.000307968438438 0.0
0.810975914579 -0.000106306217893 0.0
0.993866800001 -0.000121709463673 0.0
1.06624870488 -0.000163782498099 0.0
1.08731580768 -0.000178016029602 0.0
1.08984379671 -8.82713870947e-05 0.0
1.0931696594 8.38551506965e-05 0.0
1.09257638577 0.000167232200908 0.0
1.09190709006 -1.18359480616e-06 0.0
1.09170861906 -4.43418223424e-06 0.0
1.09145239592 8.70738904177e-05 0.0
1.09127200584 8.64769810867e-05 0.0
1.09167851018 4.25099371203e-05 0.0
1.09092167228 -3.1285330486e-05 0.0
1.09123170083 -2.08973448054e-05 0.0
1.09076341715 1.0301820874e-05 0.0
0.237968791246 0.000989749790176 0.0
0.642164147642 0.000651665723582 0.0
0.897648452976 -0.000313535699715 0.0
1.02797124956 -0.000927107485073 0.0
1.07689418657 0.000127063983109 0.0
1.09048489622 6.08469704673e-05 0.0
1.09351961405 -9.11475206524e-05 0.0
1.09429073455 7.91089233319e-05 0.0
1.09418672912 3.55715233188e-05 0.0
1.09381167308 -8.88883941998e-05 0.0
1.09429722557 -2.43417344408e-05 0.0
1.09343455849 -7.38032308677e-06 0.0
1.0939127964 4.94350817353e-05 0.0
1.09375248431 1.72672302379e-05 0.0
1.09327955211 -7.67870365109e-06 0.0
1.09321531689 -8.35112470995e-06 0.0
1.09360045058 2.59190649232e-05 0.0
1.09099298738 0.0 0.0
1.09124532184 0.0 0.0
1.09148929061 0.0 0.0
1.09150513863 0.0 0.0
1.09146501786 0.0 0.0
1.09079201526 0.0 0.0
1.09167246959 0.0 0.0
1.09024204807 0.0 0.0
1.09181791194 0.0 0.0
1.09108463423 0.0 0.0
1.0902792005 0.0 0.0
1.09185604611 0.0 0.0
1.09145709445 0.0 0.0
1.09110611397 0.0 0.0
1.09108577479 0.0 0.0
1.09131342076 0.0 0.0
1.09079307209 0.0 0.0
1.09139254423 0.0 0.0
1.09110074517 0.0 0.0
1.09117642149 0.0 0.0
1.09166781217 0.0 0.0
1.09183796147 0.0 0.0
1.09089234967 0.0 0.0
1.09129304277 0.0 0.0
1.09088145408 0.0 0.0
1.09078613242 0.0 0.0
1.09107459368 0.0 0.0
1.09188458489 0.0 0.0
1.09130444914 0.0 0.0
1.09124045646 0.0 0.0
1.09157664247 0.0 0.0
1.09199233062 0.0 0.0
1.09068757637 0.0 0.0
1.09180358806 0.0 0.0
1.08999072526 0.0 0.0
1.09222342284 0.0 0.0
1.09169748873 0.0 0.0
1.09140421464 0.0 0.0
1.09141642672 0.0 0.0
1.09177510967 0.0 0.0
1.09197814795 0.0 0.0
1.09061713293 0.0 0.0
1.09188239836 0.0 0.0
1.08989541757 0.0 0.0
1.09214667903 0.0 0.0
1.09200548091 0.0 0.0
1.09154863896 0.0 0.0
1.09148175714 0.0 0.0
1.09180476503 0.0 0.0
1.09199749555 0.0 0.0
1.09060641044 0.0 0.0
1.09194806437 0.0 0.0
1.09005476383 0.0 0.0
1.09220391178 0.0 0.0
1.09200868578 0.0 0.0
1.09150322935 0.0 0.0
1.09144575415 0.0 0.0
1.09178505278 0.0 0.0
1.09199750199 0.0 0.0
1.09060651821 0.0 0.0
1.09186357156 0.0 0.0
1.08998514632 0.0 0.0
1.09210570676 0.0 0.0
1.09185850761 0.0 0.0
1.09130733213 0.0 0.0
1.09111244018 0.0 0.0
1.09173830679 0.0 0.0
1.09125934597 0.0 0.0
1.09137329881 0.0 0.0
1.09153278632 0.0 0.0
1.09191198625 0.0 0.0
1.09112002507 0.0 0.0
1.09006641896 0.0 0.0
1.09172369757 0.0 0.0
1.09059058182 0.0 0.0
1.09030032096 0.0 0.0
1.0903705875 0.0 0.0
1.09097308531 0.0 0.0
1.09198228348 0.0 0.0
1.09063899361 0.0 0.0
1.09020352431 0.0 0.0
1.09066059451 0.0 0.0
1.09114149963 0.0 0.0
1.09151822641 0.0 0.0
1.09014854013 0.0 0.0
1.09124004508 0.0 0.0
1.09204566834 0.0 0.0
1.09161333358 0.0 0.0
1.09141514467 0.0 0.0
1.09098434919 0.0 0.0
1.09111465742 0.0 0.0
1.0910856111 0.0 0.0
1.09100694391 0.0 0.0
1.09155606478 0.0 0.0
1.0918632137 0.0 0.0
1.08981684697 0.0 0.0
1.09169043435 0.0 0.0
1.09067390216 0.0 0.0
1.09196018098 0.0 0.0
1.09169746643 0.0 0.0
1.09139879419 0.0 0.0
1.09144881568 0.0 0.0
1.09189022801 0.0 0.0
1.09214488642 0.0 0.0
1.08998112754 0.0 0.0
1.09186178889 0.0 0.0
1.09057359781 0.0 0.0
1.0919539032 0.0 0.0
1.09173643389 0.0 0.0
1.09138917856 0.0 0.0
1.09144109094 0.0 0.0
1.09194635718 0.0 0.0
1.09212972724 0.0 0.0
1.0899720448 0.0 0.0
1.09185344626 0.0 0.0
1.09050506562 0.0 0.0
1.09188205211 0.0 0.0
1.09167866013 0.0 0.0
1.09134516527 0.0 0.0
1.09139846107 0.0 0.0
1.09184090099 0.0 0.0
1.09196846969 0.0 0.0
1.08970529122 0.0 0.0
1.0916756319 0.0 0.0
1.09039517515 0.0 0.0
1.09173816769 0.0 0.0
1.09151607429 0.0 0.0
1.09113439015 0.0 0.0
1.0910948416 0.0 0.0
1.09134947314 0.0 0.0
1.09182410289 0.0 0.0
1.08954096182 0.0 0.0
1.09126236826 0.0 0.0
1.09005641448 0.0 0.0
1.09121751435 0.0 0.0
1.0906564377 0.0 0.0
1.09013436772 0.0 0.0
1.08995424752 0.0 0.0
1.09020197918 0.0 0.0
1.08905207278 0.0 0.0
1.08831219815 0.0 0.0
1.08780469008 0.0 0.0
1.08744286654 0.0 0.0
1.08618942758 0.0 0.0
1.08583631683 0.0 0.0
1.08427509547 0.0 0.0
1.08217026704 0.0 0.0
1.0799869475 0.0 0.0
1.0776056449 0.0 0.0
1.07427293696 0.0 0.0
1.07093858725 0.0 0.0
1.0668116618 0.0 0.0
1.06241147004 0.0 0.0
1.05757394473 0.0 0.0
1.0521935658 0.0 0.0
1.04618823979 0.0 0.0
1.03888819007 0.0 0.0
1.03103875723 0.0 0.0
1.02462307298 0.0 0.0
1.01792196912 0.0 0.0
1.01313968483 0.0 0.0
1.00905350168 0.0 0.0
1.00576666976 0.0 0.0
1.00314583918 0.0 0.0
1.00125018458 0.0 0.0
1.00016813013 0.0 0.0
1.09356315223 0.0 0.0
1.09336038334 0.0 0.0
1.09380376262 0.0 0.0
1.09337938579 0.0 0.0
1.09375562875 0.0 0.0
1.09346979344 0.0 0.0
1.09321638705 0.0 0.0
1.09355413654 0.0 0.0
1.09255300709 0.0 0.0
1.09372726735 0.0 0.0
1.0930194445 0.0 0.0
1.09321418095 0.0 0.0
1.09336666717 0.0 0.0
1.09369060061 0.0 0.0
1.0929625095 0.0 0.0
1.09363671805 0.0 0.0
1.09335523339 0.0 0.0
1.09294306329 0.0 0.0
1.09304508176 0.0 0.0
1.09357781293 0.0 0.0
1.09321477523 0.0 0.0
1.09379838806 0.0 0.0
1.09350519368 0.0 0.0
1.09311910708 0.0 0.0
1.09304333338 0.0 0.0
1.09361862286 0.0 0.0
1.092943572 0.0 0.0
1.09366961689 0.0 0.0
1.09370508085 0.0 0.0
1.09314011324 0.0 0.0
1.09374243774 0.0 0.0
1.09348630011 0.0 0.0
1.09329010547 0.0 0.0
1.09332762376 0.0 0.0
1.09334925115 0.0 0.0
1.09332795225 0.0 0.0
1.09351856801 0.0 0.0
1.09383735972 0.0 0.0
1.09320820176 0.0 0.0
1.09381144542 0.0 0.0
1.09362882996 0.0 0.0
1.09333671068 0.0 0.0
1.09333247802 0.0 0.0
1.09332349554 0.0 0.0
1.09335756977 0.0 0.0
1.09375483805 0.0 0.0
1.09386396876 0.0 0.0
1.09328895065 0.0 0.0
1.09385981563 0.0 0.0
1.09365918558 0.0 0.0
1.09337685506 0.0 0.0
1.09337320275 0.0 0.0
1.09342504262 0.0 0.0
1.09344093784 0.0 0.0
1.09377754178 0.0 0.0
1.09389252856 0.0 0.0
1.09327687891 0.0 0.0
1.09384666686 0.0 0.0
1.09364239308 0.0 0.0
1.09338143229 0.0 0.0
1.09334218858 0.0 0.0
1.09336681493 0.0 0.0
1.0933647312 0.0 0.0
1.09367001948 0.0 0.0
1.09373788065 0.0 0.0
1.0931518642 0.0 0.0
1.09349532012 0.0 0.0
1.09363803421 0.0 0.0
1.09304125552 0.0 0.0
1.0931231467 0.0 0.0
1.09359236546 0.0 0.0
1.0934897501 0.0 0.0
1.09280447439 0.0 0.0
1.09280225515 0.0 0.0
1.09328439106 0.0 0.0
1.09253084444 0.0 0.0
1.09314169774 0.0 0.0
1.09279672417 0.0 0.0
1.09338324344 0.0 0.0
1.09300481653 0.0 0.0
1.09320143506 0.0 0.0
1.09265658459 0.0 0.0
1.09343235087 0.0 0.0
1.09312133941 0.0 0.0
1.09294754951 0.0 0.0
1.09295155821 0.0 0.0
1.09363958698 0.0 0.0
1.09369743057 0.0 0.0
1.09320630189 0.0 0.0
1.09310340016 0.0 0.0
1.09362900631 0.0 0.0
1.09319230682 0.0 0.0
1.09355487605 0.0 0.0
1.09310849338 0.0 0.0
1.093346836 0.0 0.0
1.09321669384 0.0 0.0
1.09324288028 0.0 0.0
1.09321561901 0.0 0.0
1.09334791924 0.0 0.0
1.09355968099 0.0 0.0
1.09375195546 0.0 0.0
1.09319997983 0.0 0.0
1.09381180251 0.0 0.0
1.09366870649 0.0 0.0
1.09337028593 0.0 0.0
1.09338169763 0.0 0.0
1.09333031025 0.0 0.0
1.09333895729 0.0 0.0
1.09361396981 0.0 0.0
1.0938064462 0.0 0.0
1.0932090663 0.0 0.0
1.0938240495 0.0 0.0
1.09371506757 0.0 0.0
1.09335681971 0.0 0.0
1.09332890622 0.0 0.0
1.09327293647 0.0 0.0
1.09326607698 0.0 0.0
1.09353261135 0.0 0.0
1.09372172238 0.0 0.0
1.09314197697 0.0 0.0
1.09370895976 0.0 0.0
1.09358707474 0.0 0.0
1.0931711413 0.0 0.0
1.09312209281 0.0 0.0
1.09311581222 0.0 0.0
1.09310026239 0.0 0.0
1.09337437953 0.0 0.0
1.0935385114 0.0 0.0
1.09290961307 0.0 0.0
1.09350322148 0.0 0.0
1.09313827727 0.0 0.0
1.09289220108 0.0 0.0
1.09283834076 0.0 0.0
1.0927176015 0.0 0.0
1.0925607966 0.0 0.0
1.09260688623 0.0 0.0
1.09267191881 0.0 0.0
1.09185180301 0.0 0.0
1.09208993057 0.0 0.0
1.09167730064 0.0 0.0
1.09054906124 0.0 0.0
1.09059209978 0.0 0.0
1.08936090549 0.0 0.0
1.0885526381 0.0 0.0
1.08778046624 0.0 0.0
1.08662781455 0.0 0.0
1.08450900069 0.0 0.0
1.08269399127 0.0 0.0
1.07985874506 0.0 0.0
1.07683337386 0.0 0.0
1.07351851577 0.0 0.0
1.06958050504 0.0 0.0
1.06496942793 0.0 0.0
1.06022368959 0.0 0.0
1.05479933687 0.0 0.0
1.04882436062 0.0 0.0
1.04193106569 0.0 0.0
1.0340890413 0.0 0.0
1.02725950135 0.0 0.0
1.02042854138 0.0 0.0
1.01522258669 0.0 0.0
1.01090265161 0.0 0.0
1.00734171715 0.0 0.0
1.00444539541 0.0 0.0
1.00216105284 0.0 0.0
1.00064699604 0.0 0.0
0.999966233348 0.0 0.0
1.0 0.0 0.0
1.0 0.0 0.0
1.0 0.0 0.0
1.0 0.0 0.0
1.0 0.0 0.0
1.0 0.0 0.0
1.0 0.0 0.0
1.0 0.0 0.0
1.0 0.0 0.0
1.0 0.0 0.0
1.0 0.0 0.0
1.0 0.0 0.0
1.0 0.0 0.0
1.0 0.0 0.0
1.0 0.0 0.0
1.0 0.0 0.0
1.0 0.0 0.0
1.0 0.0 0.0
1.0 0.0 0.0
1.0 0.0 0.0
1.0 0.0 0.0
1.0 0.0 0.0
1.0 0.0 0.0
1.0 0.0 0.0
1.0 0.0 0.0
1.0 0.0 0.0
1.0 0.0 0.0
1.0 0.0 0.0
1.0 0.0 0.0
1.0 0.0 0.0
1.0 0.0 0.0
1.0 0.0 0.0
1.0 0.0 0.0
1.09283061231 -0.000225096166219 0.0
1.05703464802 -0.0556205005491 0.0
1.09276816105 -4.09429550742e-05 0.0
1.09673633604 -0.0207326372207 0.0
1.09307138164 0.000231894069491 0.0
1.09365371468 -0.00234400517139 0.0
1.09327090443 -0.000285935859824 0.0
1.09322109766 -3.21764772972e-05 0.0
1.09306493114 -0.000149805352843 0.0
1.09332888717 6.22432427629e-05 0.0
1.0933068075 -9.84341819189e-05 0.0
1.09335477153 5.03738619694e-05 0.0
1.09333812025 0.000124400375704 0.0
1.09357602815 -0.000147038899544 0.0
1.09310204434 0.000138095508821 0.0
1.09226368336 -0.00056046356376 0.0
1.09279944623 7.720300435e-05 0.0
1.09236341031 0.000506305662029 0.0
1.09077144235 -0.000892290861508 0.0
1.12988291357 -0.0557519161784 0.0
1.09271522095 -0.000137944555493 0.0
1.06554600424 -0.0354162737832 0.0
1.09060173175 9.81082139245e-05 0.0
1.09668125461 -0.00395586195308 0.0
1.09267441118 -4.37547150635e-06 0.0
1.09111384489 -6.38042538466e-06 0.0
1.09140835319 -0.0011018370188 0.0
1.09050264088 0.00018276800294 0.0
1.0905264104 0.000106784116758 0.0
1.09275219528 -0.000247199578185 0.0
1.09280972783 3.23760147104e-05 0.0
1.09080544662 -0.000354275066662 0.0
1.09077409951 -1.03194517902e-05 0.0
1.09121660658 -0.000189436062493 0.0
1.0908281104 0.000232218953192 0.0
1.09108057755 7.03139747857e-05 0.0
1.09183444314 -0.00110499049431 0.0
1.09125414795 -0.000152819441741 0.0
1.0930729935 8.26084847603e-05 0.0
1.09301665661 -8.94620591305e-05 0.0
1.09299732193 9.38832035807e-05 0.0
1.09287957126 -0.000172731274748 0.0
1.09276972082 -0.000143863033581 0.0
1.09297002527 7.98052314534e-05 0.0
1.0932908594 2.76409345388e-05 0.0
1.09284702289 -0.000845707834389 0.0
1.0903345864 -0.00618392878592 0.0
1.09280588081 4.88338510947e-05 0.0
1.09256841379 7.12258111872e-05 0.0
1.09246646625 0.000114211623506 0.0
1.08632516082 -0.000456371245784 0.0
1.08792022362 0.000786380075888 0.0
1.08871638236 -0.0899737875305 0.0
1.08734656 0.000405077970394 0.0
1.09318857045 -2.61683321395e-05 0.0
1.01321654678 -0.0200172881363 0.0
1.07264351923 0.000242453906449 0.0
1.09018018918 -0.00958359148379 0.0
1.06777170907 0.000811977619915 0.0
1.06949784506 1.71246650993e-05 0.0
1.09211208174 7.35046461172e-05 0.0
1.09226558842 5.59075870135e-05 0.0
1.09232571701 -0.000121615201974 0.0
1.0926542347 9.50259293596e-05 0.0
1.0739765129 0.000352077801177 0.0
1.07317323035 -0.000170614879387 0.0
1.07272007852 -0.000434646689944 0.0
1.07338146294 0.000362792162097 0.0
1.07330863312 -0.000249584003171 0.0
1.07329369623 0.000243400965161 0.0
1.07313537783 0.000370765434929 0.0
1.07371090108 -6.25711117882e-05 0.0
1.07260067826 0.000635316261932 0.0
1.09244750161 -0.000256690119489 0.0
1.09224869486 -5.2321688936e-05 0.0
1.09231727375 9.3016567663e-06 0.0
1.09206967132 -6.84449465161e-05 0.0
1.09226468461 1.4839910639e-05 0.0
1.07354885862 -0.00144216222026 0.0
1.07397036091 -0.000227076067705 0.0
1.091699827 -0.000255978138602 0.0
1.09199275923 1.33507558143e-05 0.0
1.09236456878 -8.42105082502e-05 0.0
1.07943392548 -0.0158833564454 0.0
1.09260707934 7.2733927552e-05 0.0
1.09125690789 -0.00184752157971 0.0
1.07289892508 -0.000543861925775 0.0
1.17063374969 -0.0897711123754 0.0
1.09260418315 -8.5099083432e-05 0.0
1.03386395839 -0.0260548362335 0.0
1.06021816619 0.00221643982772 0.0
1.09207386355 0.000108593763029 0.0
1.01622987707 -0.035130998255 0.0
1.09333278621 1.91824033167e-05 0.0
1.09234998769 7.98248371222e-05 0.0
1.09311036059 0.000401790027639 0.0
1.09312242861 -1.30291196655e-05 0.0
1.09310610037 0.000171881093816 0.0
1.09314677314 -0.000636066243382 0.0
1.09319715237 2.45848577573e-05 0.0
1.09322746434 2.92084189004e-05 0.0
1.09273473034 0.000181089793608 0.0
1.09431293121 -0.00493786522467 0.0
1.09308609893 0.000142276276887 0.0
1.09313133167 -0.00123978658384 0.0
1.09304329951 -0.000158248457867 0.0
1.09308670113 2.58200546122e-05 0.0
1.09276727025 -7.45872909031e-05 0.0
1.09295848655 8.96267626665e-05 0.0
1.09416484345 -0.0425383765702 0.0
1.09280437339 -0.000219472610893 0.0
1.0923137747 3.57148010927e-05 0.0
1.08456227879 -0.00610978211055 0.0
1.09279914696 4.34698889347e-05 0.0
1.09299176022 -3.42374848941e-05 0.0
1.09292637916 1.42308784739e-05 0.0
1.09295407603 3.65289172256e-06 0.0
1.09285843276 -4.32343025034e-05 0.0
1.09291306264 -2.06148320344e-06 0.0
1.0926905188 -3.90678646697e-05 0.0
1.09296883898 1.65358604246e-05 0.0
1.09241394648 -0.000373937298598 0.0
1.0895088117 -0.00273699853198 0.0
1.09277448485 4.85463512178e-05 0.0
0.99373681398 -0.000699725617335 0.0
1.02206256717 -0.0131047119727 0.0
0.992612094226 -0.000308128390905 0.0
0.994467296342 -0.000191450446772 0.0
0.991596018296 0.000707338994833 0.0
0.993794289007 -0.000614275161745 0.0
0.996798934107 -0.000839125769144 0.0
0.99076838715 -0.000535370106275 0.0
0.993332803168 -0.000535240065775 0.0
0.992959301791 0.001256618717 0.0
0.990769193714 0.00058365394541 0.0
0.99048129278 -7.20277982592e-05 0.0
0.993081507404 -0.00117432266814 0.0
0.99299059525 0.00093641083287 0.0
0.99040378632 0.000296494894534 0.0
0.99055692244 -0.00117175763083 0.0
0.99275824933 -0.000480377412536 0.0
0.992643032956 0.00145867978345 0.0
0.991399355548 -0.00150863739755 0.0
0.9903943795 0.000576909929147 0.0
0.990517135182 0.000519006069823 0.0
0.990377806891 -0.00105241117876 0.0
0.992916339269 7.32196728764e-05 0.0
0.990647805574 0.000670635317889 0.0
0.990629964389 -0.00148689246759 0.0
0.991020504368 0.000379448213816 0.0
1.0922116572 -7.07930801662e-05 0.0
1.09342624491 -0.000479098804059 0.0
1.08706135151 -0.0641710911829 0.0
1.0924879982 7.00146653584e-05 0.0
1.09312829107 -7.48937728402e-05 0.0
1.09306126401 5.54644764596e-05 0.0
1.09313216506 -3.58067055298e-05 0.0
1.09295693811 -0.000186462352076 0.0
1.09325885903 3.19312811862e-06 0.0
1.09326462665 -5.58528066813e-05 0.0
1.09346540076 -0.00082014129083 0.0
1.09332004558 0.000105505533513 0.0
1.09337475814 -0.000495489510073 0.0
1.09317522491 0.000151601287762 0.0
1.0928782704 1.27948888031e-05 0.0
1.09683043212 -0.00997358857108 0.0
1.09268663696 -8.40111566377e-06 0.0
0.976590504895 -0.0010523109275 0.0
0.976004186963 -0.000743972416283 0.0
1.09239718325 -4.84181337933e-05 0.0
1.06575491295 -0.0156197263864 0.0
1.15839907362 -0.142887116007 0.0
0.994439521663 -0.000170414249609 0.0
0.977546297354 -0.00146716405918 0.0
1.04810606835 -0.0362379593675 0.0
1.09246635369 3.74758466298e-05 0.0
1.09140184811 -0.000776615455056 0.0
1.09278014413 4.37713664112e-05 0.0
1.09251129721 -0.000118506668484 0.0
1.09280128932 2.59608810282e-05 0.0
1.09265375388 -6.60403610576e-05 0.0
1.09285201213 -2.36681240864e-05 0.0
1.00378519541 -0.0070424275785 0.0
1.09286657809 1.06009486778e-05 0.0
1.09280501048 -2.61095540495e-05 0.0
1.09230058026 -0.000114145826626 0.0
1.09271382543 4.70770308806e-05 0.0
1.09236235108 -0.000117644857757 0.0
1.09206443679 2.07703795464e-05 0.0
1.0923825088 2.99618031787e-05 0.0
1.09268030191 -5.87572945711e-06 0.0
1.08897710003 -0.0127880567502 0.0
0.96823987078 -0.000279628612907 0.0