# vtk DataFile Version 2.0
2D Simulation Python
ASCII
DATASET UNSTRUCTURED_GRID
FIELD FieldData 1
NODES 1 2 int
7905 15488

POINTS 7905 double
0.0 0.0 0.0
1.0 0.0 0.0
1.0 1.0 0.0
0.0 1.0 0.0
0.01249999999997639 0.0 0.0
0.02499999999995297 0.0 0.0
0.03749999999992721 0.0 0.0
0.04999999999989927 0.0 0.0
0.0624999999998716 0.0 0.0
0.07499999999985263 0.0 0.0
0.08749999999983366 0.0 0.0
0.09999999999981467 0.0 0.0
0.1124999999997956 0.0 0.0
0.1249999999997765 0.0 0.0
0.1374999999997401 0.0 0.0
0.1499999999997036 0.0 0.0
0.1624999999996672 0.0 0.0
0.1749999999996308 0.0 0.0
0.1874999999995943 0.0 0.0
0.1999999999995579 0.0 0.0
0.2124999999995214 0.0 0.0
0.224999999999485 0.0 0.0
0.2374999999994485 0.0 0.0
0.2499999999994121 0.0 0.0
0.2624999999993757 0.0 0.0
0.2749999999993393 0.0 0.0
0.2874999999993028 0.0 0.0
0.2999999999992664 0.0 0.0
0.3124999999992299 0.0 0.0
0.3249999999991935 0.0 0.0
0.3374999999991571 0.0 0.0
0.3499999999991207 0.0 0.0
0.3624999999990842 0.0 0.0
0.3749999999990478 0.0 0.0
0.3874999999990113 0.0 0.0
0.3999999999989749 0.0 0.0
0.4124999999989398 0.0 0.0
0.4249999999989048 0.0 0.0
0.4374999999988697 0.0 0.0
0.4499999999988346 0.0 0.0
0.4624999999987995 0.0 0.0
0.4749999999987644 0.0 0.0
0.4874999999987293 0.0 0.0
0.4999999999986943 0.0 0.0
0.5124999999987259 0.0 0.0
0.5249999999987575 0.0 0.0
0.5374999999987891 0.0 0.0
0.5499999999988205 0.0 0.0
0.5624999999988521 0.0 0.0
0.5749999999988837 0.0 0.0
0.5874999999989152 0.0 0.0
0.5999999999989468 0.0 0.0
0.6124999999989797 0.0 0.0
0.6249999999990127 0.0 0.0
0.6374999999990456 0.0 0.0
0.6499999999990784 0.0 0.0
0.6624999999991114 0.0 0.0
0.6749999999991443 0.0 0.0
0.6874999999991771 0.0 0.0
0.69999999999921 0.0 0.0
0.712499999999243 0.0 0.0
0.7249999999992759 0.0 0.0
0.7374999999993088 0.0 0.0
0.7499999999993416 0.0 0.0
0.7624999999993746 0.0 0.0
0.7749999999994075 0.0 0.0
0.7874999999994404 0.0 0.0
0.7999999999994734 0.0 0.0
0.8124999999995063 0.0 0.0
0.8249999999995392 0.0 0.0
0.8374999999995721 0.0 0.0
0.8499999999996051 0.0 0.0
0.862499999999638 0.0 0.0
0.8749999999996709 0.0 0.0
0.8874999999997039 0.0 0.0
0.8999999999997368 0.0 0.0
0.9124999999997697 0.0 0.0
0.9249999999998026 0.0 0.0
0.9374999999998355 0.0 0.0
0.9499999999998684 0.0 0.0
0.9624999999999013 0.0 0.0
0.9749999999999343 0.0 0.0
0.9874999999999672 0.0 0.0
1.0 0.01249999999997639 0.0
1.0 0.02499999999995297 0.0
1.0 0.03749999999992721 0.0
1.0 0.04999999999989927 0.0
1.0 0.0624999999998716 0.0
1.0 0.07499999999985263 0.0
1.0 0.08749999999983366 0.0
1.0 0.09999999999981467 0.0
1.0 0.1124999999997956 0.0
1.0 0.1249999999997765 0.0
1.0 0.1374999999997401 0.0
1.0 0.1499999999997036 0.0
1.0 0.1624999999996672 0.0
1.0 0.1749999999996308 0.0
1.0 0.1874999999995943 0.0
1.0 0.1999999999995579 0.0
1.0 0.2124999999995214 0.0
1.0 0.224999999999485 0.0
1.0 0.2374999999994485 0.0
1.0 0.2499999999994121 0.0
1.0 0.2624999999993757 0.0
1.0 0.2749999999993393 0.0
1.0 0.2874999999993028 0.0
1.0 0.2999999999992664 0.0
1.0 0.3124999999992299 0.0
1.0 0.3249999999991935 0.0
1.0 0.3374999999991571 0.0
1.0 0.3499999999991207 0.0
1.0 0.3624999999990842 0.0
1.0 0.3749999999990478 0.0
1.0 0.3874999999990113 0.0
1.0 0.3999999999989749 0.0
1.0 0.4124999999989398 0.0
1.0 0.4249999999989048 0.0
1.0 0.4374999999988697 0.0
1.0 0.4499999999988346 0.0
1.0 0.4624999999987995 0.0
1.0 0.4749999999987644 0.0
1.0 0.4874999999987293 0.0
1.0 0.4999999999986943 0.0
1.0 0.5124999999987259 0.0
1.0 0.5249999999987575 0.0
1.0 0.5374999999987891 0.0
1.0 0.5499999999988205 0.0
1.0 0.5624999999988521 0.0
1.0 0.5749999999988837 0.0
1.0 0.5874999999989152 0.0
1.0 0.5999999999989468 0.0
1.0 0.6124999999989797 0.0
1.0 0.6249999999990127 0.0
1.0 0.6374999999990456 0.0
1.0 0.6499999999990784 0.0
1.0 0.6624999999991114 0.0
1.0 0.6749999999991443 0.0
1.0 0.6874999999991771 0.0
1.0 0.69999999999921 0.0
1.0 0.712499999999243 0.0
1.0 0.7249999999992759 0.0
1.0 0.7374999999993088 0.0
1.0 0.7499999999993416 0.0
1.0 0.7624999999993746 0.0
1.0 0.7749999999994075 0.0
1.0 0.7874999999994404 0.0
1.0 0.7999999999994734 0.0
1.0 0.8124999999995063 0.0
1.0 0.8249999999995392 0.0
1.0 0.8374999999995721 0.0
1.0 0.8499999999996051 0.0
1.0 0.862499999999638 0.0
1.0 0.8749999999996709 0.0
1.0 0.8874999999997039 0.0
1.0 0.8999999999997368 0.0
1.0 0.9124999999997697 0.0
1.0 0.9249999999998026 0.0
1.0 0.9374999999998355 0.0
1.0 0.9499999999998684 0.0
1.0 0.9624999999999013 0.0
1.0 0.9749999999999343 0.0
1.0 0.9874999999999672 0.0
0.9874999999999439 1.0 0.0
0.9749999999998877 1.0 0.0
0.9624999999998541 1.0 0.0
0.9499999999998356 1.0 0.0
0.9374999999997805 1.0 0.0
0.9249999999996992 1.0 0.0
0.9124999999996414 1.0 0.0
0.8999999999995836 1.0 0.0
0.8874999999996454 1.0 0.0
0.8749999999997078 1.0 0.0
0.8624999999997771 1.0 0.0
0.8499999999998515 1.0 0.0
0.837499999999895 1.0 0.0
0.8249999999999216 1.0 0.0
0.8124999999999571 1.0 0.0
0.7999999999999998 1.0 0.0
0.7875000000000937 1.0 0.0
0.77500000000021 1.0 0.0
0.7625000000002968 1.0 0.0
0.7500000000003858 1.0 0.0
0.7375000000004739 1.0 0.0
0.7250000000005448 1.0 0.0
0.7125000000005861 1.0 0.0
0.7000000000006934 1.0 0.0
0.6875000000008109 1.0 0.0
0.6750000000009306 1.0 0.0
0.6625000000010091 1.0 0.0
0.6500000000010593 1.0 0.0
0.6375000000011386 1.0 0.0
0.6250000000012101 1.0 0.0
0.612500000001312 1.0 0.0
0.6000000000013869 1.0 0.0
0.5875000000014601 1.0 0.0
0.5750000000015277 1.0 0.0
0.5625000000016089 1.0 0.0
0.5500000000016854 1.0 0.0
0.5375000000017889 1.0 0.0
0.5250000000018821 1.0 0.0
0.5125000000019756 1.0 0.0
0.5000000000020587 1.0 0.0
0.4875000000020093 1.0 0.0
0.4750000000019601 1.0 0.0
0.4625000000019108 1.0 0.0
0.4500000000018616 1.0 0.0
0.4375000000018123 1.0 0.0
0.425000000001763 1.0 0.0
0.4125000000017136 1.0 0.0
0.4000000000016644 1.0 0.0
0.3875000000016123 1.0 0.0
0.3750000000015603 1.0 0.0
0.3625000000015083 1.0 0.0
0.3500000000014563 1.0 0.0
0.3375000000014042 1.0 0.0
0.3250000000013522 1.0 0.0
0.3125000000013003 1.0 0.0
0.3000000000012483 1.0 0.0
0.2875000000011962 1.0 0.0
0.2750000000011442 1.0 0.0
0.2625000000010922 1.0 0.0
0.2500000000010403 1.0 0.0
0.2375000000009883 1.0 0.0
0.2250000000009362 1.0 0.0
0.2125000000008842 1.0 0.0
0.2000000000008322 1.0 0.0
0.1875000000007802 1.0 0.0
0.1750000000007281 1.0 0.0
0.1625000000006761 1.0 0.0
0.1500000000006241 1.0 0.0
0.1375000000005721 1.0 0.0
0.12500000000052 1.0 0.0
0.112500000000468 1.0 0.0
0.100000000000416 1.0 0.0
0.08750000000036395 1.0 0.0
0.07500000000031193 1.0 0.0
0.06250000000026001 1.0 0.0
0.05000000000020799 1.0 0.0
0.03750000000015596 1.0 0.0
0.02500000000010394 1.0 0.0
0.01250000000005191 1.0 0.0
0.0 0.9874999999999439 0.0
0.0 0.9749999999998877 0.0
0.0 0.9624999999998541 0.0
0.0 0.9499999999998356 0.0
0.0 0.9374999999997805 0.0
0.0 0.9249999999996992 0.0
0.0 0.9124999999996414 0.0
0.0 0.8999999999995836 0.0
0.0 0.8874999999996454 0.0
0.0 0.8749999999997078 0.0
0.0 0.8624999999997771 0.0
0.0 0.8499999999998515 0.0
0.0 0.837499999999895 0.0
0.0 0.8249999999999216 0.0
0.0 0.8124999999999571 0.0
0.0 0.7999999999999998 0.0
0.0 0.7875000000000937 0.0
0.0 0.77500000000021 0.0
0.0 0.7625000000002968 0.0
0.0 0.7500000000003858 0.0
0.0 0.7375000000004739 0.0
0.0 0.7250000000005448 0.0
0.0 0.7125000000005861 0.0
0.0 0.7000000000006934 0.0
0.0 0.6875000000008109 0.0
0.0 0.6750000000009306 0.0
0.0 0.6625000000010091 0.0
0.0 0.6500000000010593 0.0
0.0 0.6375000000011386 0.0
0.0 0.6250000000012101 0.0
0.0 0.612500000001312 0.0
0.0 0.6000000000013869 0.0
0.0 0.5875000000014601 0.0
0.0 0.5750000000015277 0.0
0.0 0.5625000000016089 0.0
0.0 0.5500000000016854 0.0
0.0 0.5375000000017889 0.0
0.0 0.5250000000018821 0.0
0.0 0.5125000000019756 0.0
0.0 0.5000000000020587 0.0
0.0 0.4875000000020093 0.0
0.0 0.4750000000019601 0.0
0.0 0.4625000000019108 0.0
0.0 0.4500000000018616 0.0
0.0 0.4375000000018123 0.0
0.0 0.425000000001763 0.0
0.0 0.4125000000017136 0.0
0.0 0.4000000000016644 0.0
0.0 0.3875000000016123 0.0
0.0 0.3750000000015603 0.0
0.0 0.3625000000015083 0.0
0.0 0.3500000000014563 0.0
0.0 0.3375000000014042 0.0
0.0 0.3250000000013522 0.0
0.0 0.3125000000013003 0.0
0.0 0.3000000000012483 0.0
0.0 0.2875000000011962 0.0
0.0 0.2750000000011442 0.0
0.0 0.2625000000010922 0.0
0.0 0.2500000000010403 0.0
0.0 0.2375000000009883 0.0
0.0 0.2250000000009362 0.0
0.0 0.2125000000008842 0.0
0.0 0.2000000000008322 0.0
0.0 0.1875000000007802 0.0
0.0 0.1750000000007281 0.0
0.0 0.1625000000006761 0.0
0.0 0.1500000000006241 0.0
0.0 0.1375000000005721 0.0
0.0 0.12500000000052 0.0
0.0 0.112500000000468 0.0
0.0 0.100000000000416 0.0
0.0 0.08750000000036395 0.0
0.0 0.07500000000031193 0.0
0.0 0.06250000000026001 0.0
0.0 0.05000000000020799 0.0
0.0 0.03750000000015596 0.0
0.0 0.02500000000010394 0.0
0.0 0.01250000000005191 0.0
0.499547313951317 0.4984202829398231 0.0
0.7057142553715264 0.7049957919913439 0.0
0.2942617789825218 0.706558362574613 0.0
0.7052750732513358 0.29408370064617073 0.0
0.2941161372558304 0.29425664999463297 0.0
0.49473409022248005 0.7865288457870021 0.0
0.21400675843102512 0.49559804899934157 0.0
0.7879606576561358 0.5053778129282838 0.0
0.505369301426186 0.2119891966328729 0.0
0.8286074034533916 0.8287576993256224 0.0
0.17122528584787128 0.8286011816233976 0.0
0.8287577004551061 0.17139259539200086 0.0
0.17140751986106711 0.17123186221929698 0.0
0.6412438345717256 0.8516520873564006 0.0
0.14868333985619164 0.6419476520576217 0.0
0.36001439100831745 0.8471882363166383 0.0
0.8472916681795735 0.639858398754968 0.0
0.8516551147624887 0.3587551765143301 0.0
0.1529024464427883 0.36006180552290556 0.0
0.3587547979315107 0.148343271772372 0.0
0.6398585806283599 0.15270777331315408 0.0
0.5665851234669081 0.6415505082226679 0.0
0.3688065763014604 0.5781443560211958 0.0
0.6448511073779454 0.4469929790001165 0.0
0.43335085497228876 0.35323599965884955 0.0
0.42653529248703315 0.6555720715037009 0.0
0.6657620768186652 0.5502649260729648 0.0
0.3566111211511165 0.42874186251021185 0.0
0.5447859278293945 0.34262223816401394 0.0
0.4594948214297615 0.8920313032464312 0.0
[...]
POINT_DATA 7905
VECTORS vector double
0.0 0.0 0.0
0.0 0.0 0.0
0.0 0.0 0.0
0.0 0.0 0.0
0.0 0.0 0.0
0.0 0.0 0.0
0.0 0.0 0.0
0.0 0.0 0.0
0.0 0.0 0.0
0.0 0.0 0.0
0.0 0.0 0.0
0.0 0.0 0.0
0.0 0.0 0.0
0.0 0.0 0.0
0.0 0.0 0.0
0.0 0.0 0.0
0.0 0.0 0.0
0.0 0.0 0.0
0.0 0.0 0.0
0.0 0.0 0.0
0.0 0.0 0.0
0.0 0.0 0.0
0.0 0.0 0.0
0.0 0.0 0.0
0.0 0.0 0.0
0.0 0.0 0.0
0.0 0.0 0.0
0.0 0.0 0.0
0.0 0.0 0.0
0.0 0.0 0.0
0.0 0.0 0.0
0.0 0.0 0.0
0.0 0.0 0.0
0.0 0.0 0.0
0.0 0.0 0.0
0.0 0.0 0.0
0.0 0.0 0.0
0.0 0.0 0.0
0.0 0.0 0.0
0.0 0.0 0.0
0.0 0.0 0.0
0.0 0.0 0.0
0.0 0.0 0.0
0.0 0.0 0.0
0.0 0.0 0.0
0.0 0.0 0.0
0.0 0.0 0.0
0.0 0.0 0.0
0.0 0.0 0.0
0.0 0.0 0.0
0.0 0.0 0.0
0.0 0.0 0.0
0.0 0.0 0.0
0.0 0.0 0.0
0.0 0.0 0.0
0.0 0.0 0.0
0.0 0.0 0.0
0.0 0.0 0.0
0.0 0.0 0.0
0.0 0.0 0.0
0.0 0.0 0.0
0.0 0.0 0.0
0.0 0.0 0.0
0.0 0.0 0.0
0.0 0.0 0.0
0.0 0.0 0.0
0.0 0.0 0.0
0.0 0.0 0.0
0.0 0.0 0.0
0.0 0.0 0.0
0.0 0.0 0.0
0.0 0.0 0.0
0.0 0.0 0.0
0.0 0.0 0.0
0.0 0.0 0.0
0.0 0.0 0.0
0.0 0.0 0.0
0.0 0.0 0.0
0.0 0.0 0.0
0.0 0.0 0.0
0.0 0.0 0.0
0.0 0.0 0.0
0.0 0.0 0.0
0.0 0.0 0.0
0.0 0.0 0.0
0.0 0.0 0.0
0.0 0.0 0.0
0.0 0.0 0.0
0.0 0.0 0.0
0.0 0.0 0.0
0.0 0.0 0.0
0.0 0.0 0.0
0.0 0.0 0.0
0.0 0.0 0.0
0.0 0.0 0.0
0.0 0.0 0.0
0.0 0.0 0.0
0.0 0.0 0.0
0.0 0.0 0.0
0.0 0.0 0.0
0.0 0.0 0.0
0.0 0.0 0.0
0.0 0.0 0.0
0.0 0.0 0.0
0.0 0.0 0.0
0.0 0.0 0.0
0.0 0.0 0.0
0.0 0.0 0.0
0.0 0.0 0.0
0.0 0.0 0.0
0.0 0.0 0.0
0.0 0.0 0.0
0.0 0.0 0.0
0.0 0.0 0.0
0.0 0.0 0.0
0.0 0.0 0.0
0.0 0.0 0.0
0.0 0.0 0.0
0.0 0.0 0.0
0.0 0.0 0.0
0.0 0.0 0.0
0.0 0.0 0.0
0.0 0.0 0.0
0.0 0.0 0.0
0.0 0.0 0.0
0.0 0.0 0.0
0.0 0.0 0.0
0.0 0.0 0.0
0.0 0.0 0.0
0.0 0.0 0.0
0.0 0.0 0.0
0.0 0.0 0.0
0.0 0.0 0.0
0.0 0.0 0.0
0.0 0.0 0.0
0.0 0.0 0.0
0.0 0.0 0.0
0.0 0.0 0.0
0.0 0.0 0.0
0.0 0.0 0.0
0.0 0.0 0.0
0.0 0.0 0.0
0.0 0.0 0.0
0.0 0.0 0.0
0.0 0.0 0.0
0.0 0.0 0.0
0.0 0.0 0.0
0.0 0.0 0.0
0.0 0.0 0.0
0.0 0.0 0.0
0.0 0.0 0.0
0.0 0.0 0.0
0.0 0.0 0.0
0.0 0.0 0.0
0.0 0.0 0.0
0.0 0.0 0.0
0.0 0.0 0.0
0.0 0.0 0.0
0.0 0.0 0.0
0.0 0.0 0.0
0.0 0.0 0.0
0.0 0.0 0.0
1.0 0.0 0.0
1.0 0.0 0.0
1.0 0.0 0.0
1.0 0.0 0.0
1.0 0.0 0.0
1.0 0.0 0.0
1.0 0.0 0.0
1.0 0.0 0.0
1.0 0.0 0.0
1.0 0.0 0.0
1.0 0.0 0.0
1.0 0.0 0.0
1.0 0.0 0.0
1.0 0.0 0.0
1.0 0.0 0.0
1.0 0.0 0.0
1.0 0.0 0.0
1.0 0.0 0.0
1.0 0.0 0.0
1.0 0.0 0.0
1.0 0.0 0.0
1.0 0.0 0.0
1.0 0.0 0.0
1.0 0.0 0.0
1.0 0.0 0.0
1.0 0.0 0.0
1.0 0.0 0.0
1.0 0.0 0.0
1.0 0.0 0.0
1.0 0.0 0.0
1.0 0.0 0.0
1.0 0.0 0.0
1.0 0.0 0.0
1.0 0.0 0.0
1.0 0.0 0.0
1.0 0.0 0.0
1.0 0.0 0.0
1.0 0.0 0.0
1.0 0.0 0.0
1.0 0.0 0.0
1.0 0.0 0.0
1.0 0.0 0.0
1.0 0.0 0.0
1.0 0.0 0.0
1.0 0.0 0.0
1.0 0.0 0.0
1.0 0.0 0.0
1.0 0.0 0.0
1.0 0.0 0.0
1.0 0.0 0.0
1.0 0.0 0.0
1.0 0.0 0.0
1.0 0.0 0.0
1.0 0.0 0.0
1.0 0.0 0.0
1.0 0.0 0.0
1.0 0.0 0.0
1.0 0.0 0.0
1.0 0.0 0.0
1.0 0.0 0.0
1.0 0.0 0.0
1.0 0.0 0.0
1.0 0.0 0.0
1.0 0.0 0.0
1.0 0.0 0.0
1.0 0.0 0.0
1.0 0.0 0.0
1.0 0.0 0.0
1.0 0.0 0.0
1.0 0.0 0.0
1.0 0.0 0.0
1.0 0.0 0.0
1.0 0.0 0.0
1.0 0.0 0.0
1.0 0.0 0.0
1.0 0.0 0.0
1.0 0.0 0.0
1.0 0.0 0.0
1.0 0.0 0.0
0.0 0.0 0.0
0.0 0.0 0.0
0.0 0.0 0.0
0.0 0.0 0.0
0.0 0.0 0.0
0.0 0.0 0.0
0.0 0.0 0.0
0.0 0.0 0.0
0.0 0.0 0.0
0.0 0.0 0.0
0.0 0.0 0.0
0.0 0.0 0.0
0.0 0.0 0.0
0.0 0.0 0.0
0.0 0.0 0.0
0.0 0.0 0.0
0.0 0.0 0.0
0.0 0.0 0.0
0.0 0.0 0.0
0.0 0.0 0.0
0.0 0.0 0.0
0.0 0.0 0.0
0.0 0.0 0.0
0.0 0.0 0.0
0.0 0.0 0.0
0.0 0.0 0.0
0.0 0.0 0.0
0.0 0.0 0.0
0.0 0.0 0.0
0.0 0.0 0.0
0.0 0.0 0.0
0.0 0.0 0.0
0.0 0.0 0.0
0.0 0.0 0.0
0.0 0.0 0.0
0.0 0.0 0.0
0.0 0.0 0.0
0.0 0.0 0.0
0.0 0.0 0.0
0.0 0.0 0.0
0.0 0.0 0.0
0.0 0.0 0.0
0.0 0.0 0.0
0.0 0.0 0.0
0.0 0.0 0.0
0.0 0.0 0.0
0.0 0.0 0.0
0.0 0.0 0.0
0.0 0.0 0.0
0.0 0.0 0.0
0.0 0.0 0.0
0.0 0.0 0.0
0.0 0.0 0.0
0.0 0.0 0.0
0.0 0.0 0.0
0.0 0.0 0.0
0.0 0.0 0.0
0.0 0.0 0.0
0.0 0.0 0.0
0.0 0.0 0.0
0.0 0.0 0.0
0.0 0.0 0.0
0.0 0.0 0.0
0.0 0.0 0.0
0.0 0.0 0.0
0.0 0.0 0.0
0.0 0.0 0.0
0.0 0.0 0.0
0.0 0.0 0.0
0.0 0.0 0.0
0.0 0.0 0.0
0.0 0.0 0.0
0.0 0.0 0.0
0.0 0.0 0.0
0.0 0.0 0.0
0.0 0.0 0.0
0.0 0.0 0.0
0.0 0.0 0.0
0.0 0.0 0.0
-0.176076738472 0.0470925190065 0.0
-0.166680582033 -0.124370260041 0.0
-0.0978251824976 0.189364368254 0.0
-0.0774789576783 -0.0518966554485 0.0
-0.0628220746633 0.0461961804883 0.0
0.00805265189476 0.108372694815 0.0
-0.0635904563955 0.12127503341 0.0
-0.156472938121 -0.185221583204 0.0
-0.0759409923281 0.000892723513109 0.0
0.00869355107291 -0.304896595771 0.0
-0.0769979747513 0.229545597125 0.0
-0.0183578165876 -0.0198207904457 0.0
-0.0196466137492 0.0191769891134 0.0
0.225638066064 0.00433820108051 0.0
-0.0484646130202 0.173404730051 0.0
0.0639966611554 0.124904799947 0.0
-0.172839498301 -0.340364993261 0.0
-0.0398016346103 -0.0741388905493 0.0
-0.0293965440046 0.0640521915784 0.0
-0.0475884038118 0.0122167367325 0.0
-0.0500705272036 -0.0133399054047 0.0
-0.185778786092 0.0477608177977 0.0
-0.133292024042 0.13539834989 0.0
-0.178678418277 -0.0661165108293 0.0
-0.112714355367 0.0344670527106 0.0
-0.137211315285 0.141126035149 0.0
-0.228934550189 -0.0924360140428 0.0
-0.110233639228 0.0785199000422 0.0
-0.124202050646 -0.00730323285625 0.0
0.341892631133 0.0601419514354 0.0
-0.0185302657752 0.0833486892142 0.0
-0.0659139579616 -0.187713912843 0.0
-0.0550342124354 -0.00184019743855 0.0
0.422493372476 -0.0555498457683 0.0
-0.0372860122038 0.190571074695 0.0
-0.0100101567016 -0.0261568182943 0.0
-0.0246937413037 0.00802331522604 0.0
-0.12053568281 -0.453460806684 0.0
0.143599615952 0.11041370031 0.0
-0.0253342571164 -0.00943857531615 0.0
-0.0108754125291 0.0289263631367 0.0
-0.0141039490181 0.0339127674428 0.0
-0.0734522742373 0.168240130573 0.0
-0.0973144477882 -0.100082680318 0.0
-0.076173665832 0.0241116699948 0.0
-0.0617565373807 0.158447994013 0.0
-0.227596428148 -0.210256658867 0.0
-0.0652817592859 0.080665214451 0.0
-0.0850476743909 -0.0220107254741 0.0
0.0652811788971 -0.371286500618 0.0
-0.0808267778588 0.258284904625 0.0
-0.00295712076792 -0.00474083271422 0.0
-0.0039232863534 0.00525650888682 0.0
0.499379892288 0.0188496978435 0.0
-0.0159344000338 0.103252118719 0.0
-0.0216258750773 -0.0751041596183 0.0
-0.0371283652877 0.00327023795907 0.0
-0.174333346936 -0.304313472731 0.0
-0.0622115110396 0.187660918523 0.0
-0.0481188047272 -0.0295716675265 0.0
-0.0378622920256 0.0449543771175 0.0
0.025087133686 -0.108745689902 0.0
-0.0784181380771 0.211471062179 0.0
-0.0424040945821 -0.0502544458684 0.0
-0.0443959585578 0.0256905982221 0.0
-0.174402315464 0.0915734339004 0.0
-0.212368472772 -0.000995115469898 0.0
-0.144635820547 0.0898160856825 0.0
-0.166880642258 -0.0077225308393 0.0
-0.215209655597 -0.0515963032514 0.0
-0.118963712045 0.165944068599 0.0
-0.122693462008 -0.0478057512628 0.0
-0.0877332012831 0.0550262325297 0.0
0.601215126766 -0.0044498038072 0.0
-0.014183736063 0.115499702364 0.0
-0.00791248418357 -0.0340848884945 0.0
-0.0262048789768 0.00376217879139 0.0
-0.0611906506947 -0.258310954168 0.0
-0.0289924546382 -0.00439111323025 0.0
0.399752017198 0.0492343070923 0.0
-0.00800348595703 0.0400558146615 0.0
0.399955197451 -0.112261013782 0.0
-0.0529231587833 0.227914113345 0.0
-0.00361885219926 -0.0097428373464 0.0
-0.0102348096668 0.00546014987427 0.0
-0.0885602679439 -0.523504847947 0.0
-0.00915780311679 -0.00580742853349 0.0
0.1044560588 0.13379679937 0.0
-0.00467617996862 0.0117258703622 0.0
-0.119154204758 0.111417995015 0.0
-0.102221420303 0.11910453536 0.0
-0.191892026852 -0.133481231131 0.0
-0.0970748219972 0.00563038920564 0.0
0.149503851524 0.0608098562071 0.0
-0.048065887928 0.140742922902 0.0
-0.07820314508 -0.133744711519 0.0
-0.0587433929204 0.00692570883845 0.0
0.0122671452671 0.121108098031 0.0
-0.0392556636837 0.0910528979616 0.0
-0.147441369835 -0.255997538159 0.0
-0.0552776211906 -0.00881867602857 0.0
-0.145335177081 0.0422098969648 0.0
-0.138720533379 0.0145905706921 0.0
-0.143880589039 -0.00925341860218 0.0
-0.15745020171 0.0176981849605 0.0
-0.000701605368437 -0.00274350881151 0.0
-0.000706701975056 -0.00184451021576 0.0
-0.00288916017802 0.0022695702785 0.0
-0.000855060871623 0.0018143786132 0.0
0.370668372669 -0.150120960356 0.0
0.0630207098984 -0.378886226811 0.0
-0.067783964035 0.268948702587 0.0
-0.0609465833184 0.283346893038 0.0
-0.00244737514919 -0.00226698542441 0.0
-0.00104483626542 0.00321919428819 0.0
-0.0560159816378 -0.520727950669 0.0
0.116590781905 0.152020524589 0.0
-0.121774088543 0.0149052047766 0.0
-0.128818070358 0.0383327159432 0.0
-0.131277623065 0.130281895879 0.0
-0.0909448325869 0.137327460827 0.0
-0.111873401496 0.151475324816 0.0
-0.21811575739 -0.118466161696 0.0
-0.218255524515 -0.165090687003 0.0
-0.236853463157 -0.13670253375 0.0
-0.105735305512 0.0983261207958 0.0
-0.0855819080499 0.102277035971 0.0
-0.0904378035222 0.084092193282 0.0
-0.10956678158 -0.000670273858142 0.0
-0.0954242095331 -0.00765272929496 0.0
-0.10578647494 -0.0184656221477 0.0
-0.140773802865 0.112848254268 0.0
-0.163175881951 0.092686877179 0.0
-0.154463622525 0.11729623152 0.0
-0.154501193408 0.122041475859 0.0
-0.141298747008 0.138947332243 0.0
-0.203103214139 -0.0391879066783 0.0
-0.19223965315 -0.00578290771622 0.0
-0.173835497334 -0.0352022093952 0.0
-0.210683768262 -0.0770975114856 0.0
-0.225999017269 -0.0498417550304 0.0
-0.0634481745198 0.113748827478 0.0
-0.0409270136558 0.133332676963 0.0
-0.0826908936942 0.123360268089 0.0
-0.0680531197956 0.103661444547 0.0
-0.180478628795 -0.160642326715 0.0
-0.201206818697 -0.20487099209 0.0
-0.0879865030612 0.00311533136747 0.0
-0.0821635249078 -0.00763191508685 0.0
-0.0681046362391 0.177797562716 0.0
-0.081736958214 0.193105375177 0.0
-0.0646994106312 0.197079877144 0.0
0.0726637573563 0.0164785462991 0.0
-0.00972455824664 -0.0347080829331 0.0
0.127412528073 -0.0361781596642 0.0
-0.0603355913501 0.0179095135209 0.0
-0.0595473721401 0.026747059357 0.0
-0.0474563638626 0.0185269679185 0.0
-0.0690621011051 -0.0916629528985 0.0
-0.0674933922055 -0.072859791874 0.0
-0.042152569386 -0.0629279180529 0.0
-0.0888231812822 0.200507261745 0.0
-0.0967948098589 0.185504477844 0.0
-0.0893204075729 -0.116470848571 0.0
-0.114969382136 -0.046567871498 0.0
-0.054831066252 0.0359185687815 0.0
-0.0701625958772 0.0369199264235 0.0
-0.0624758107394 -0.0547096702918 0.0
-0.0894897758154 -0.0694289853476 0.0
-0.198569599584 -0.351766583059 0.0
-0.217171249872 -0.264204645611 0.0
-0.212386195002 -0.294064940612 0.0
-0.0135498753772 0.157735537445 0.0
-0.0624542979621 0.173624130303 0.0
-0.0188998228034 0.150357881725 0.0
-0.0502252699276 -0.0208425512212 0.0
-0.0657992508 -0.0291551498324 0.0
-0.0640565636608 -0.018974223881 0.0
-0.0341226979381 0.0551679937023 0.0
-0.0502930183955 0.0608357427803 0.0
-0.0455562698542 0.0724072585169 0.0
-0.129004774637 0.063686359538 0.0
-0.11424920029 0.0565403687058 0.0
0.634491228933 0.0197492334745 0.0
0.658549270421 0.0160866183227 0.0
-0.00463222063463 0.0419589900166 0.0
-0.00538423632059 0.0530254053828 0.0
-0.0199223168404 -0.118745002071 0.0
-0.0149529116564 -0.085906120476 0.0
-0.0295173806839 -0.00114053683714 0.0
-0.0312383917973 0.000128818292964 0.0
-0.0195880370352 -0.1409410536 0.0
-0.0662458257595 -0.227974463129 0.0
-0.0238895167925 -0.00177890198338 0.0
-0.0371526276558 -0.00395990384978 0.0
0.657323407945 0.0186863837111 0.0
0.362257496542 0.0541032875889 0.0
-0.00299859338116 0.0286330156479 0.0
-0.0122228357759 0.0561725029155 0.0
-0.186097600241 -0.100221417404 0.0
-0.106185272679 0.0171932206738 0.0
-0.216618080461 -0.17513018825 0.0
-0.171440918328 -0.204012271957 0.0
-0.0914922215879 0.178762992778 0.0
-0.0844633678357 0.192589054259 0.0
-0.0822211404408 -0.038676264852 0.0
-0.0630228843316 -0.0408374855184 0.0
-0.0651586443438 0.0598582385077 0.0
-0.0518083207727 0.0472882526647 0.0
-0.126362494373 0.154978099715 0.0
-0.125461468839 0.153956760507 0.0
-0.0980636534667 0.0666021866685 0.0
-0.100437886522 0.047246193973 0.0
-0.145815239341 0.06732912496 0.0
-0.126301150054 0.0859184786848 0.0
-0.18284124979 0.0655258284879 0.0
-0.16425139844 0.0693849076196 0.0
-0.177724481722 0.0210334012761 0.0
-0.195131562424 0.0296764076312 0.0
-0.123486215391 -0.278116288957 0.0
-0.11628274814 -0.32562104693 0.0
-0.0489664754 -0.00714525765681 0.0
-0.039152094509 -0.00810126886996 0.0
0.168627228399 0.0923472725196 0.0
0.203333350267 0.0872535793715 0.0
-0.024868704119 0.0729758687774 0.0
-0.0169078501535 0.0536760568131 0.0
0.723954765508 -0.0151652746458 0.0
0.68250833302 -0.0273161108415 0.0
-0.00951994473023 0.108633563924 0.0
-0.0143882063256 0.133553022118 0.0
-0.00233574378793 -0.0138995352993 0.0
-0.0018899966873 -0.0100111820819 0.0
-0.0164006542688 0.00248561996889 0.0
-0.0129082573174 0.0028086100396 0.0
-0.0461691670048 -0.353362112214 0.0
-0.0381335083282 -0.275914732881 0.0
-0.0130280019521 -0.00343656663146 0.0
-0.0175909173057 -0.00322174310136 0.0
0.452599378325 0.0445082140002 0.0
0.525788028513 0.033379004802 0.0
-0.00247058580095 0.0130019099888 0.0
-0.0027906062103 0.0179256670503 0.0
0.423492595418 0.0353971389061 0.0
0.72001418513 0.00809181080678 0.0
-0.0174509479918 0.0941392379863 0.0
-0.00478198319978 0.0579825955815 0.0
-0.0370571089509 -0.115570400889 0.0
-0.00822701915776 -0.053443529264 0.0
-0.0421274326017 0.00162222003867 0.0
-0.0278068439329 0.00133380912868 0.0
-0.156795095164 -0.400696405956 0.0
-0.166505973745 -0.408462353053 0.0
0.08576881085 0.122758265893 0.0
-0.0124279831159 0.165965876806 0.0
-0.0377231521747 -0.0129320592112 0.0
-0.0354639726534 -0.0190288084846 0.0
-0.0199411719301 0.0463162492788 0.0
-0.0238658672411 0.0390756979871 0.0
0.0774322838746 0.0833985086174 0.0
0.214310867376 0.0657582878498 0.0
0.112561096898 0.0926967521652 0.0
-0.0558829553391 0.133431044559 0.0
-0.0350544507822 0.116675132318 0.0
-0.0429045156348 0.110242741633 0.0
-0.113509834056 -0.160525111088 0.0
-0.0783382916439 -0.157290088119 0.0
-0.121388562153 -0.200396836491 0.0
-0.0677080260479 0.00516569689418 0.0
-0.055289696549 0.00223292249822 0.0
-0.0626155910538 -0.00102081196666 0.0
-0.197872702884 0.00737794010737 0.0
-0.160224592983 -0.0099611836461 0.0
-0.147482520977 0.0445678663818 0.0
-0.109482025991 0.169205704259 0.0
-0.112519998733 0.151847189912 0.0
-0.148153967774 -0.0581136928551 0.0
-0.12024507679 -0.0716924292514 0.0
-0.150013111382 -0.087901372929 0.0
-0.0855808395726 0.0400391988118 0.0
-0.0959628907268 0.0299431314855 0.0
0.19903808626 -0.146562914389 0.0
0.182438360114 -0.0902036368453 0.0
0.0311017500143 -0.194003523352 0.0
-0.0682254901885 0.231177317765 0.0
-0.0634066514067 0.214481455385 0.0
-0.0790842375129 0.224638964357 0.0
-0.0149854786935 -0.0253872391446 0.0
-0.0244160507302 -0.0403930672185 0.0
-0.0278578646478 -0.0332013332499 0.0
-0.0236746592447 0.0139418918683 0.0
-0.0344256840725 0.0164295582922 0.0
-0.0314210825951 0.0232430675026 0.0
-0.192758219936 -0.086718754609 0.0
-0.10617917064 0.178139581456 0.0
-0.0991797280349 -0.0531758712622 0.0
-0.0763698605257 0.0511071923862 0.0
-0.208097271229 0.0263328067342 0.0
-0.223967621169 -0.0226152248986 0.0
-0.235014912613 -0.079246615323 0.0
-0.146877784404 -0.0325192567915 0.0
-0.123555639281 -0.0274103243225 0.0
0.764717188559 0.00173816285048 0.0
-0.00430903028173 0.0616765547963 0.0
-0.00454696579625 -0.033443048209 0.0
-0.0236069733637 0.00180921614904 0.0
0.0277353113584 0.118324466692 0.0
-0.0139800156522 0.138462374939 0.0
-0.168192985477 -0.227196812416 0.0
-0.203317293284 -0.252356122416 0.0
-0.0518423108599 0.102943217666 0.0
-0.0534532220891 0.0889720242647 0.0
-0.0698923727463 -0.00567020882581 0.0
-0.0716961646386 -0.0130021399944 0.0
0.41112492395 -0.0893107847176 0.0
0.655487691758 -0.0379381116668 0.0
-0.0457163886136 0.211773932105 0.0
-0.0192869792092 0.153508179146 0.0
-0.00599023104147 -0.0157388026177 0.0
-0.00119113028674 -0.00615128193009 0.0
-0.0160437548409 0.00695067216267 0.0
-0.00862067152229 0.00249285520678 0.0
-0.0455749345534 -0.401266950171 0.0
-0.105401357576 -0.502069602919 0.0
-0.00823100610869 -0.00285289441777 0.0
-0.0150742981885 -0.00780416052936 0.0
0.419129335063 0.0521212925811 0.0
0.114306974433 0.124552395376 0.0
-0.00166594087448 0.00809485642592 0.0
-0.00731781097378 0.0182869132135 0.0
-0.044439861179 0.186002377639 0.0
0.305589209154 -0.0310348436823 0.0
-0.0364400327756 0.0112613912786 0.0
-0.0221711998703 -0.0476570814714 0.0
-0.102941288288 -0.322073721277 0.0
-0.122440538082 -0.443988883496 0.0
-0.0687275558265 0.205742872149 0.0
-0.0231096883475 0.180368053588 0.0
-0.0320149334223 -0.0261169987517 0.0
-0.0229250654693 -0.0155799765336 0.0
-0.0279526093416 0.0311703242287 0.0
-0.0164426250925 0.0261033203611 0.0
-0.000887339514199 -0.00399044270807 0.0
0.567170410341 -0.0645544666272 0.0
-0.00543070626602 0.00233698425342 0.0
-0.0336553597734 0.197349187592 0.0
-0.0529436183377 -0.471308607086 0.0
-0.00489311707796 -0.00248154745619 0.0
0.312338392266 0.0788670764087 0.0
-0.0012817385624 0.00511846647018 0.0
0.292209829027 0.0419852470387 0.0
-0.0320270956939 0.128350610562 0.0
-0.0497292058316 -0.112531566896 0.0
-0.0494883170416 0.00502135633456 0.0
-0.00369701351624 -0.0076281262913 0.0
-0.00759351600384 0.00600898938036 0.0
0.250067762626 -0.203254695151 0.0
-0.0777975612068 0.259976656333 0.0
-0.0566444281275 -0.500889771244 0.0
-0.00631254539919 -0.00593797396595 0.0
-0.00885806804604 0.191857044633 0.0
-0.0048513378559 0.00887085332653 0.0
-0.0891843157016 -0.209802876462 0.0
-0.0821418117306 0.208656397673 0.0
-0.044556171024 -0.0391948302253 0.0
-0.0409242721508 0.0345388344177 0.0
-0.0972745102939 0.0823414399713 0.0
-0.154092272589 0.0802568599305 0.0
-0.0974134375287 0.141903009046 0.0
-0.118453033439 0.129797500529 0.0
-0.159347903834 -0.12136590434 0.0
-0.091351118151 0.0158839756096 0.0
0.111956856735 0.101361417506 0.0
-0.0359441689011 0.0916121294157 0.0
0.0495186313836 0.123559494201 0.0
-0.0383374952979 0.0803979310625 0.0
-0.136505835996 -0.245143258372 0.0
-0.0583189222161 -0.0056548900611 0.0
-0.17529195148 -0.288802839068 0.0
-0.0593903202894 -0.0113064667513 0.0
0.779664669178 -0.00583573830701 0.0
0.526001003734 -0.0184854207846 0.0
-0.00535184918136 0.0798385593876 0.0
-0.0224164066085 0.147903397495 0.0
0.28672697339 0.0708233134596 0.0
0.410526439319 -0.00231851853993 0.0
-0.0291397021691 0.151811806007 0.0
-0.0898553768039 -0.349974541312 0.0
-0.00932317589683 0.0354426454313 0.0
-0.0280102040691 -0.00657360739321 0.0
0.626896935172 0.0217784295818 0.0
-0.0243783567741 -0.187473325441 0.0
-0.00250159741114 0.0214807608813 0.0
-0.0201544811239 -0.00235319168153 0.0
-0.00220406358413 -0.0161503256718 0.0
-0.00911631688033 -0.0313744527008 0.0
-0.0176450255351 0.00179375940486 0.0
-0.0265928843156 0.00549646241701 0.0
-0.0196522627578 -0.0534155956823 0.0
-0.0363647666151 0.00724720768122 0.0
-0.0193228211577 0.0851133711039 0.0
-0.077069755671 0.143363182056 0.0
-0.136818736912 -0.142085504035 0.0
-0.0791872653193 0.0107245752195 0.0
-0.159353026517 0.103582795952 0.0
-0.18596623183 0.0696333302902 0.0
-0.123286838326 0.107247590844 0.0
0.2017355949 -0.195951674881 0.0
-0.0751312335848 0.245777910035 0.0
-0.0777678159873 -0.463270087739 0.0
-0.00884896741183 -0.0153059483841 0.0
-0.0323000858787 0.19469089809 0.0
-0.0148977588517 0.0106304435219 0.0
-0.0133564150593 -0.011124481746 0.0
-0.0105123182891 0.016529198952 0.0
0.178360122306 0.0375733565582 0.0
0.0550181261464 0.0585652361832 0.0
-0.0497063846659 0.157093568467 0.0
-0.0664418488961 0.156639947833 0.0
-0.0962070745096 -0.123626215555 0.0
-0.0604637579083 -0.104006503974 0.0
-0.0556222431865 0.0103678794077 0.0
-0.0679202159384 0.012758964105 0.0
-0.107391396572 0.167227620606 0.0
-0.232777989827 -0.12752590685 0.0
-0.0810791573658 0.0675873681783 0.0
-0.102026369357 -0.0349947444896 0.0
0.0460496509005 -0.345065516074 0.0
-0.0806347147549 0.242308733357 0.0
-0.00848254468866 -0.0107788932377 0.0
-0.0101173052495 0.0112439263938 0.0
-0.198758421854 0.0490395879175 0.0
0.554996315848 0.00564319169613 0.0
0.793398723335 -0.00216124036592 0.0
-0.0150337634057 0.111124297555 0.0
-0.00405603854166 0.0653034686511 0.0
0.345551161784 0.0201824271939 0.0
-0.0312005639014 0.141883520804 0.0
-0.0131425308917 -0.0500372249511 0.0
-0.00266679823915 -0.0212596595524 0.0