# vtk DataFile Version 2.0
2D Simulation Python
ASCII
DATASET UNSTRUCTURED_GRID
FIELD FieldData 1
NODES 1 2 int
7905 15488

POINTS 7905 double
0.0 0.0 0.0
1.0 0.0 0.0
1.0 1.0 0.0
0.0 1.0 0.0
0.01249999999997639 0.0 0.0
0.02499999999995297 0.0 0.0
0.03749999999992721 0.0 0.0
0.04999999999989927 0.0 0.0
0.0624999999998716 0.0 0.0
0.07499999999985263 0.0 0.0
0.08749999999983366 0.0 0.0
0.09999999999981467 0.0 0.0
0.1124999999997956 0.0 0.0
0.1249999999997765 0.0 0.0
0.1374999999997401 0.0 0.0
0.1499999999997036 0.0 0.0
0.1624999999996672 0.0 0.0
0.1749999999996308 0.0 0.0
0.1874999999995943 0.0 0.0
0.1999999999995579 0.0 0.0
0.2124999999995214 0.0 0.0
0.224999999999485 0.0 0.0
0.2374999999994485 0.0 0.0
0.2499999999994121 0.0 0.0
0.2624999999993757 0.0 0.0
0.2749999999993393 0.0 0.0
0.2874999999993028 0.0 0.0
0.2999999999992664 0.0 0.0
0.3124999999992299 0.0 0.0
0.3249999999991935 0.0 0.0
0.3374999999991571 0.0 0.0
0.3499999999991207 0.0 0.0
0.3624999999990842 0.0 0.0
0.3749999999990478 0.0 0.0
0.3874999999990113 0.0 0.0
0.3999999999989749 0.0 0.0
0.4124999999989398 0.0 0.0
0.4249999999989048 0.0 0.0
0.4374999999988697 0.0 0.0
0.4499999999988346 0.0 0.0
0.4624999999987995 0.0 0.0
0.4749999999987644 0.0 0.0
0.4874999999987293 0.0 0.0
0.4999999999986943 0.0 0.0
0.5124999999987259 0.0 0.0
0.5249999999987575 0.0 0.0
0.5374999999987891 0.0 0.0
0.5499999999988205 0.0 0.0
0.5624999999988521 0.0 0.0
0.5749999999988837 0.0 0.0
0.5874999999989152 0.0 0.0
0.5999999999989468 0.0 0.0
0.6124999999989797 0.0 0.0
0.6249999999990127 0.0 0.0
0.6374999999990456 0.0 0.0
0.6499999999990784 0.0 0.0
0.6624999999991114 0.0 0.0
0.6749999999991443 0.0 0.0
0.6874999999991771 0.0 0.0
0.69999999999921 0.0 0.0
0.712499999999243 0.0 0.0
0.7249999999992759 0.0 0.0
0.7374999999993088 0.0 0.0
0.7499999999993416 0.0 0.0
0.7624999999993746 0.0 0.0
0.7749999999994075 0.0 0.0
0.7874999999994404 0.0 0.0
0.7999999999994734 0.0 0.0
0.8124999999995063 0.0 0.0
0.8249999999995392 0.0 0.0
0.8374999999995721 0.0 0.0
0.8499999999996051 0.0 0.0
0.862499999999638 0.0 0.0
0.8749999999996709 0.0 0.0
0.8874999999997039 0.0 0.0
0.8999999999997368 0.0 0.0
0.9124999999997697 0.0 0.0
0.9249999999998026 0.0 0.0
0.9374999999998355 0.0 0.0
0.9499999999998684 0.0 0.0
0.9624999999999013 0.0 0.0
0.9749999999999343 0.0 0.0
0.9874999999999672 0.0 0.0
1.0 0.01249999999997639 0.0
1.0 0.02499999999995297 0.0
1.0 0.03749999999992721 0.0
1.0 0.04999999999989927 0.0
1.0 0.0624999999998716 0.0
1.0 0.07499999999985263 0.0
1.0 0.08749999999983366 0.0
1.0 0.09999999999981467 0.0
1.0 0.1124999999997956 0.0
1.0 0.1249999999997765 0.0
1.0 0.1374999999997401 0.0
1.0 0.1499999999997036 0.0
1.0 0.1624999999996672 0.0
1.0 0.1749999999996308 0.0
1.0 0.1874999999995943 0.0
1.0 0.1999999999995579 0.0
1.0 0.2124999999995214 0.0
1.0 0.224999999999485 0.0
1.0 0.2374999999994485 0.0
1.0 0.2499999999994121 0.0
1.0 0.2624999999993757 0.0
1.0 0.2749999999993393 0.0
1.0 0.2874999999993028 0.0
1.0 0.2999999999992664 0.0
1.0 0.3124999999992299 0.0
1.0 0.3249999999991935 0.0
1.0 0.3374999999991571 0.0
1.0 0.3499999999991207 0.0
1.0 0.3624999999990842 0.0
1.0 0.3749999999990478 0.0
1.0 0.3874999999990113 0.0
1.0 0.3999999999989749 0.0
1.0 0.4124999999989398 0.0
1.0 0.4249999999989048 0.0
1.0 0.4374999999988697 0.0
1.0 0.4499999999988346 0.0
1.0 0.4624999999987995 0.0
1.0 0.4749999999987644 0.0
1.0 0.4874999999987293 0.0
1.0 0.4999999999986943 0.0
1.0 0.5124999999987259 0.0
1.0 0.5249999999987575 0.0
1.0 0.5374999999987891 0.0
1.0 0.5499999999988205 0.0
1.0 0.5624999999988521 0.0
1.0 0.5749999999988837 0.0
1.0 0.5874999999989152 0.0
1.0 0.5999999999989468 0.0
1.0 0.6124999999989797 0.0
1.0 0.6249999999990127 0.0
1.0 0.6374999999990456 0.0
1.0 0.6499999999990784 0.0
1.0 0.6624999999991114 0.0
1.0 0.6749999999991443 0.0
1.0 0.6874999999991771 0.0
1.0 0.69999999999921 0.0
1.0 0.712499999999243 0.0
1.0 0.7249999999992759 0.0
1.0 0.7374999999993088 0.0
1.0 0.7499999999993416 0.0
1.0 0.7624999999993746 0.0
1.0 0.7749999999994075 0.0
1.0 0.7874999999994404 0.0
1.0 0.7999999999994734 0.0
1.0 0.8124999999995063 0.0
1.0 0.8249999999995392 0.0
1.0 0.8374999999995721 0.0
1.0 0.8499999999996051 0.0
1.0 0.862499999999638 0.0
1.0 0.8749999999996709 0.0
1.0 0.8874999999997039 0.0
1.0 0.8999999999997368 0.0
1.0 0.9124999999997697 0.0
1.0 0.9249999999998026 0.0
1.0 0.9374999999998355 0.0
1.0 0.9499999999998684 0.0
1.0 0.9624999999999013 0.0
1.0 0.9749999999999343 0.0
1.0 0.9874999999999672 0.0
0.9874999999999439 1.0 0.0
0.9749999999998877 1.0 0.0
0.9624999999998541 1.0 0.0
0.9499999999998356 1.0 0.0
0.9374999999997805 1.0 0.0
0.9249999999996992 1.0 0.0
0.9124999999996414 1.0 0.0
0.8999999999995836 1.0 0.0
0.8874999999996454 1.0 0.0
0.8749999999997078 1.0 0.0
0.8624999999997771 1.0 0.0
0.8499999999998515 1.0 0.0
0.837499999999895 1.0 0.0
0.8249999999999216 1.0 0.0
0.8124999999999571 1.0 0.0
0.7999999999999998 1.0 0.0
0.7875000000000937 1.0 0.0
0.77500000000021 1.0 0.0
0.7625000000002968 1.0 0.0
0.7500000000003858 1.0 0.0
0.7375000000004739 1.0 0.0
0.7250000000005448 1.0 0.0
0.7125000000005861 1.0 0.0
0.7000000000006934 1.0 0.0
0.6875000000008109 1.0 0.0
0.6750000000009306 1.0 0.0
0.6625000000010091 1.0 0.0
0.6500000000010593 1.0 0.0
0.6375000000011386 1.0 0.0
0.6250000000012101 1.0 0.0
0.612500000001312 1.0 0.0
0.6000000000013869 1.0 0.0
0.5875000000014601 1.0 0.0
0.5750000000015277 1.0 0.0
0.5625000000016089 1.0 0.0
0.5500000000016854 1.0 0.0
0.5375000000017889 1.0 0.0
0.5250000000018821 1.0 0.0
0.5125000000019756 1.0 0.0
0.5000000000020587 1.0 0.0
0.4875000000020093 1.0 0.0
0.4750000000019601 1.0 0.0
0.4625000000019108 1.0 0.0
0.4500000000018616 1.0 0.0
0.4375000000018123 1.0 0.0
0.425000000001763 1.0 0.0
0.4125000000017136 1.0 0.0
0.4000000000016644 1.0 0.0
0.3875000000016123 1.0 0.0
0.3750000000015603 1.0 0.0
0.3625000000015083 1.0 0.0
0.3500000000014563 1.0 0.0
0.3375000000014042 1.0 0.0
0.3250000000013522 1.0 0.0
0.3125000000013003 1.0 0.0
0.3000000000012483 1.0 0.0
0.2875000000011962 1.0 0.0
0.2750000000011442 1.0 0.0
0.2625000000010922 1.0 0.0
0.2500000000010403 1.0 0.0
0.2375000000009883 1.0 0.0
0.2250000000009362 1.0 0.0
0.2125000000008842 1.0 0.0
0.2000000000008322 1.0 0.0
0.1875000000007802 1.0 0.0
0.1750000000007281 1.0 0.0
0.1625000000006761 1.0 0.0
0.1500000000006241 1.0 0.0
0.1375000000005721 1.0 0.0
0.12500000000052 1.0 0.0
0.112500000000468 1.0 0.0
0.100000000000416 1.0 0.0
0.08750000000036395 1.0 0.0
0.07500000000031193 1.0 0.0
0.06250000000026001 1.0 0.0
0.05000000000020799 1.0 0.0
0.03750000000015596 1.0 0.0
0.02500000000010394 1.0 0.0
0.01250000000005191 1.0 0.0
0.0 0.9874999999999439 0.0
0.0 0.9749999999998877 0.0
0.0 0.9624999999998541 0.0
0.0 0.9499999999998356 0.0
0.0 0.9374999999997805 0.0
0.0 0.9249999999996992 0.0
0.0 0.9124999999996414 0.0
0.0 0.8999999999995836 0.0
0.0 0.8874999999996454 0.0
0.0 0.8749999999997078 0.0
0.0 0.8624999999997771 0.0
0.0 0.8499999999998515 0.0
0.0 0.837499999999895 0.0
0.0 0.8249999999999216 0.0
0.0 0.8124999999999571 0.0
0.0 0.7999999999999998 0.0
0.0 0.7875000000000937 0.0
0.0 0.77500000000021 0.0
0.0 0.7625000000002968 0.0
0.0 0.7500000000003858 0.0
0.0 0.7375000000004739 0.0
0.0 0.7250000000005448 0.0
0.0 0.7125000000005861 0.0
0.0 0.7000000000006934 0.0
0.0 0.6875000000008109 0.0
0.0 0.6750000000009306 0.0
0.0 0.6625000000010091 0.0
0.0 0.6500000000010593 0.0
0.0 0.6375000000011386 0.0
0.0 0.6250000000012101 0.0
0.0 0.612500000001312 0.0
0.0 0.6000000000013869 0.0
0.0 0.5875000000014601 0.0
0.0 0.5750000000015277 0.0
0.0 0.5625000000016089 0.0
0.0 0.5500000000016854 0.0
0.0 0.5375000000017889 0.0
0.0 0.5250000000018821 0.0
0.0 0.5125000000019756 0.0
0.0 0.5000000000020587 0.0
0.0 0.4875000000020093 0.0
0.0 0.4750000000019601 0.0
0.0 0.4625000000019108 0.0
0.0 0.4500000000018616 0.0
0.0 0.4375000000018123 0.0
0.0 0.425000000001763 0.0
0.0 0.4125000000017136 0.0
0.0 0.4000000000016644 0.0
0.0 0.3875000000016123 0.0
0.0 0.3750000000015603 0.0
0.0 0.3625000000015083 0.0
0.0 0.3500000000014563 0.0
0.0 0.3375000000014042 0.0
0.0 0.3250000000013522 0.0
0.0 0.3125000000013003 0.0
0.0 0.3000000000012483 0.0
0.0 0.2875000000011962 0.0
0.0 0.2750000000011442 0.0
0.0 0.2625000000010922 0.0
0.0 0.2500000000010403 0.0
0.0 0.2375000000009883 0.0
0.0 0.2250000000009362 0.0
0.0 0.2125000000008842 0.0
0.0 0.2000000000008322 0.0
0.0 0.1875000000007802 0.0
0.0 0.1750000000007281 0.0
0.0 0.1625000000006761 0.0
0.0 0.1500000000006241 0.0
0.0 0.1375000000005721 0.0
0.0 0.12500000000052 0.0
0.0 0.112500000000468 0.0
0.0 0.100000000000416 0.0
0.0 0.08750000000036395 0.0
0.0 0.07500000000031193 0.0
0.0 0.06250000000026001 0.0
0.0 0.05000000000020799 0.0
0.0 0.03750000000015596 0.0
0.0 0.02500000000010394 0.0
0.0 0.01250000000005191 0.0
0.499547313951317 0.4984202829398231 0.0
0.7057142553715264 0.7049957919913439 0.0
0.2942617789825218 0.706558362574613 0.0
0.7052750732513358 0.29408370064617073 0.0
0.2941161372558304 0.29425664999463297 0.0
0.49473409022248005 0.7865288457870021 0.0
0.21400675843102512 0.49559804899934157 0.0
0.7879606576561358 0.5053778129282838 0.0
0.505369301426186 0.2119891966328729 0.0
0.8286074034533916 0.8287576993256224 0.0
0.17122528584787128 0.8286011816233976 0.0
0.8287577004551061 0.17139259539200086 0.0
0.17140751986106711 0.17123186221929698 0.0
0.6412438345717256 0.8516520873564006 0.0
0.14868333985619164 0.6419476520576217 0.0
0.36001439100831745 0.8471882363166383 0.0
0.8472916681795735 0.639858398754968 0.0
0.8516551147624887 0.3587551765143301 0.0
0.1529024464427883 0.36006180552290556 0.0
0.3587547979315107 0.148343271772372 0.0
0.6398585806283599 0.15270777331315408 0.0
0.5665851234669081 0.6415505082226679 0.0
0.3688065763014604 0.5781443560211958 0.0
0.6448511073779454 0.4469929790001165 0.0
0.43335085497228876 0.35323599965884955 0.0
0.42653529248703315 0.6555720715037009 0.0
0.6657620768186652 0.5502649260729648 0.0
0.3566111211511165 0.42874186251021185 0.0
0.5447859278293945 0.34262223816401394 0.0
0.4594948214297615 0.8920313032464312 0.0
[...]
POINT_DATA 7905
VECTORS vector double
0.0 0.0 0.0
0.0 0.0 0.0
0.0 0.0 0.0
0.0 0.0 0.0
0.0 0.0 0.0
0.0 0.0 0.0
0.0 0.0 0.0
0.0 0.0 0.0
0.0 0.0 0.0
0.0 0.0 0.0
0.0 0.0 0.0
0.0 0.0 0.0
0.0 0.0 0.0
0.0 0.0 0.0
0.0 0.0 0.0
0.0 0.0 0.0
0.0 0.0 0.0
0.0 0.0 0.0
0.0 0.0 0.0
0.0 0.0 0.0
0.0 0.0 0.0
0.0 0.0 0.0
0.0 0.0 0.0
0.0 0.0 0.0
0.0 0.0 0.0
0.0 0.0 0.0
0.0 0.0 0.0
0.0 0.0 0.0
0.0 0.0 0.0
0.0 0.0 0.0
0.0 0.0 0.0
0.0 0.0 0.0
0.0 0.0 0.0
0.0 0.0 0.0
0.0 0.0 0.0
0.0 0.0 0.0
0.0 0.0 0.0
0.0 0.0 0.0
0.0 0.0 0.0
0.0 0.0 0.0
0.0 0.0 0.0
0.0 0.0 0.0
0.0 0.0 0.0
0.0 0.0 0.0
0.0 0.0 0.0
0.0 0.0 0.0
0.0 0.0 0.0
0.0 0.0 0.0
0.0 0.0 0.0
0.0 0.0 0.0
0.0 0.0 0.0
0.0 0.0 0.0
0.0 0.0 0.0
0.0 0.0 0.0
0.0 0.0 0.0
0.0 0.0 0.0
0.0 0.0 0.0
0.0 0.0 0.0
0.0 0.0 0.0
0.0 0.0 0.0
0.0 0.0 0.0
0.0 0.0 0.0
0.0 0.0 0.0
0.0 0.0 0.0
0.0 0.0 0.0
0.0 0.0 0.0
0.0 0.0 0.0
0.0 0.0 0.0
0.0 0.0 0.0
0.0 0.0 0.0
0.0 0.0 0.0
0.0 0.0 0.0
0.0 0.0 0.0
0.0 0.0 0.0
0.0 0.0 0.0
0.0 0.0 0.0
0.0 0.0 0.0
0.0 0.0 0.0
0.0 0.0 0.0
0.0 0.0 0.0
0.0 0.0 0.0
0.0 0.0 0.0
0.0 0.0 0.0
0.0 0.0 0.0
0.0 0.0 0.0
0.0 0.0 0.0
0.0 0.0 0.0
0.0 0.0 0.0
0.0 0.0 0.0
0.0 0.0 0.0
0.0 0.0 0.0
0.0 0.0 0.0
0.0 0.0 0.0
0.0 0.0 0.0
0.0 0.0 0.0
0.0 0.0 0.0
0.0 0.0 0.0
0.0 0.0 0.0
0.0 0.0 0.0
0.0 0.0 0.0
0.0 0.0 0.0
0.0 0.0 0.0
0.0 0.0 0.0
0.0 0.0 0.0
0.0 0.0 0.0
0.0 0.0 0.0
0.0 0.0 0.0
0.0 0.0 0.0
0.0 0.0 0.0
0.0 0.0 0.0
0.0 0.0 0.0
0.0 0.0 0.0
0.0 0.0 0.0
0.0 0.0 0.0
0.0 0.0 0.0
0.0 0.0 0.0
0.0 0.0 0.0
0.0 0.0 0.0
0.0 0.0 0.0
0.0 0.0 0.0
0.0 0.0 0.0
0.0 0.0 0.0
0.0 0.0 0.0
0.0 0.0 0.0
0.0 0.0 0.0
0.0 0.0 0.0
0.0 0.0 0.0
0.0 0.0 0.0
0.0 0.0 0.0
0.0 0.0 0.0
0.0 0.0 0.0
0.0 0.0 0.0
0.0 0.0 0.0
0.0 0.0 0.0
0.0 0.0 0.0
0.0 0.0 0.0
0.0 0.0 0.0
0.0 0.0 0.0
0.0 0.0 0.0
0.0 0.0 0.0
0.0 0.0 0.0
0.0 0.0 0.0
0.0 0.0 0.0
0.0 0.0 0.0
0.0 0.0 0.0
0.0 0.0 0.0
0.0 0.0 0.0
0.0 0.0 0.0
0.0 0.0 0.0
0.0 0.0 0.0
0.0 0.0 0.0
0.0 0.0 0.0
0.0 0.0 0.0
0.0 0.0 0.0
0.0 0.0 0.0
0.0 0.0 0.0
0.0 0.0 0.0
0.0 0.0 0.0
0.0 0.0 0.0
0.0 0.0 0.0
0.0 0.0 0.0
0.0 0.0 0.0
1.0 0.0 0.0
1.0 0.0 0.0
1.0 0.0 0.0
1.0 0.0 0.0
1.0 0.0 0.0
1.0 0.0 0.0
1.0 0.0 0.0
1.0 0.0 0.0
1.0 0.0 0.0
1.0 0.0 0.0
1.0 0.0 0.0
1.0 0.0 0.0
1.0 0.0 0.0
1.0 0.0 0.0
1.0 0.0 0.0
1.0 0.0 0.0
1.0 0.0 0.0
1.0 0.0 0.0
1.0 0.0 0.0
1.0 0.0 0.0
1.0 0.0 0.0
1.0 0.0 0.0
1.0 0.0 0.0
1.0 0.0 0.0
1.0 0.0 0.0
1.0 0.0 0.0
1.0 0.0 0.0
1.0 0.0 0.0
1.0 0.0 0.0
1.0 0.0 0.0
1.0 0.0 0.0
1.0 0.0 0.0
1.0 0.0 0.0
1.0 0.0 0.0
1.0 0.0 0.0
1.0 0.0 0.0
1.0 0.0 0.0
1.0 0.0 0.0
1.0 0.0 0.0
1.0 0.0 0.0
1.0 0.0 0.0
1.0 0.0 0.0
1.0 0.0 0.0
1.0 0.0 0.0
1.0 0.0 0.0
1.0 0.0 0.0
1.0 0.0 0.0
1.0 0.0 0.0
1.0 0.0 0.0
1.0 0.0 0.0
1.0 0.0 0.0
1.0 0.0 0.0
1.0 0.0 0.0
1.0 0.0 0.0
1.0 0.0 0.0
1.0 0.0 0.0
1.0 0.0 0.0
1.0 0.0 0.0
1.0 0.0 0.0
1.0 0.0 0.0
1.0 0.0 0.0
1.0 0.0 0.0
1.0 0.0 0.0
1.0 0.0 0.0
1.0 0.0 0.0
1.0 0.0 0.0
1.0 0.0 0.0
1.0 0.0 0.0
1.0 0.0 0.0
1.0 0.0 0.0
1.0 0.0 0.0
1.0 0.0 0.0
1.0 0.0 0.0
1.0 0.0 0.0
1.0 0.0 0.0
1.0 0.0 0.0
1.0 0.0 0.0
1.0 0.0 0.0
1.0 0.0 0.0
0.0 0.0 0.0
0.0 0.0 0.0
0.0 0.0 0.0
0.0 0.0 0.0
0.0 0.0 0.0
0.0 0.0 0.0
0.0 0.0 0.0
0.0 0.0 0.0
0.0 0.0 0.0
0.0 0.0 0.0
0.0 0.0 0.0
0.0 0.0 0.0
0.0 0.0 0.0
0.0 0.0 0.0
0.0 0.0 0.0
0.0 0.0 0.0
0.0 0.0 0.0
0.0 0.0 0.0
0.0 0.0 0.0
0.0 0.0 0.0
0.0 0.0 0.0
0.0 0.0 0.0
0.0 0.0 0.0
0.0 0.0 0.0
0.0 0.0 0.0
0.0 0.0 0.0
0.0 0.0 0.0
0.0 0.0 0.0
0.0 0.0 0.0
0.0 0.0 0.0
0.0 0.0 0.0
0.0 0.0 0.0
0.0 0.0 0.0
0.0 0.0 0.0
0.0 0.0 0.0
0.0 0.0 0.0
0.0 0.0 0.0
0.0 0.0 0.0
0.0 0.0 0.0
0.0 0.0 0.0
0.0 0.0 0.0
0.0 0.0 0.0
0.0 0.0 0.0
0.0 0.0 0.0
0.0 0.0 0.0
0.0 0.0 0.0
0.0 0.0 0.0
0.0 0.0 0.0
0.0 0.0 0.0
0.0 0.0 0.0
0.0 0.0 0.0
0.0 0.0 0.0
0.0 0.0 0.0
0.0 0.0 0.0
0.0 0.0 0.0
0.0 0.0 0.0
0.0 0.0 0.0
0.0 0.0 0.0
0.0 0.0 0.0
0.0 0.0 0.0
0.0 0.0 0.0
0.0 0.0 0.0
0.0 0.0 0.0
0.0 0.0 0.0
0.0 0.0 0.0
0.0 0.0 0.0
0.0 0.0 0.0
0.0 0.0 0.0
0.0 0.0 0.0
0.0 0.0 0.0
0.0 0.0 0.0
0.0 0.0 0.0
0.0 0.0 0.0
0.0 0.0 0.0
0.0 0.0 0.0
0.0 0.0 0.0
0.0 0.0 0.0
0.0 0.0 0.0
0.0 0.0 0.0
-0.141887090592 0.0310708030147 0.0
-0.194726134955 -0.100741308734 0.0
-0.113292052165 0.160671612634 0.0
-0.0606927619802 -0.0401366160395 0.0
-0.0514963353441 0.0370071463994 0.0
-0.0395859667427 0.0895032981086 0.0
-0.0572945594398 0.100287156391 0.0
-0.123755051766 -0.144111930067 0.0
-0.0621541705656 0.00120854493928 0.0
-0.0264047163829 -0.285008690013 0.0
-0.0852864634455 0.221640118318 0.0
-0.0170977936271 -0.0174151905781 0.0
-0.016892870473 0.0160464930889 0.0
0.171819314443 0.00925865501094 0.0
-0.0515069903951 0.155449791751 0.0
0.0354259261238 0.109212813111 0.0
-0.162173934319 -0.284418643795 0.0
-0.0308839648739 -0.0618952854833 0.0
-0.0249775588973 0.0538694269348 0.0
-0.0402363822726 0.00971190318899 0.0
-0.0431559366515 -0.00991047571986 0.0
-0.186707923927 0.0355366705486 0.0
-0.12526887742 0.103160267898 0.0
-0.136536154875 -0.0511729460669 0.0
-0.0890388847143 0.0255846861196 0.0
-0.145155669887 0.107994383089 0.0
-0.190079669283 -0.0728892852019 0.0
-0.0906555883087 0.0595847419954 0.0
-0.0956103940588 -0.00585859903328 0.0
0.305324075412 0.0511599896941 0.0
-0.0157567826214 0.0714414729928 0.0
-0.0513693342811 -0.15109733421 0.0
-0.0432626116498 -0.00114725604542 0.0
0.38854934175 -0.0466101666647 0.0
-0.041236814714 0.182617496271 0.0
-0.00878922815986 -0.0246537818076 0.0
-0.0210473129405 0.00634960534827 0.0
-0.12661129851 -0.408461936661 0.0
0.135469667987 0.103863515416 0.0
-0.022823612989 -0.00736525386543 0.0
-0.00918692468963 0.0247686143887 0.0
-0.0588289216887 0.0323264755958 0.0
-0.0731348336201 0.139866858374 0.0
-0.0675145326607 -0.0772803066996 0.0
-0.0576737774829 0.0189545994512 0.0
-0.0924053093605 0.129720884374 0.0
-0.206547795111 -0.168785781272 0.0
-0.053456317561 0.0649681274448 0.0
-0.0668004683571 -0.0162129284134 0.0
0.0537315229954 -0.365457453031 0.0
-0.0800907721237 0.258200036509 0.0
-0.00330184759716 -0.00413122380408 0.0
-0.00354554355453 0.0041120303247 0.0
0.462550926069 0.0176741566218 0.0
-0.0158406438694 0.0920426384889 0.0
-0.0165352793899 -0.0633645432902 0.0
-0.0314179541749 0.00241839845799 0.0
-0.198375830395 -0.265345168349 0.0
-0.0834940423768 0.168459017632 0.0
-0.0411494027205 -0.023405205391 0.0
-0.0317953654306 0.0372588776525 0.0
-0.0259825671106 -0.0895237095662 0.0
-0.0892873762479 0.191591537408 0.0
-0.034904390461 -0.0416497640724 0.0
-0.0374250362599 0.0208910997456 0.0
-0.161026331224 0.0653381963724 0.0
-0.179074639567 -0.00469598226982 0.0
-0.12214320372 0.0654190243209 0.0
-0.128512932722 -0.00810122633493 0.0
-0.214332244465 -0.0407677683463 0.0
-0.126647018173 0.132283827049 0.0
-0.0930528456543 -0.0361764379135 0.0
-0.0705408484108 0.0426746815634 0.0
0.563480935706 -0.00142551920418 0.0
-0.0152084253562 0.107703861277 0.0
-0.00642834601647 -0.0318175821416 0.0
-0.0221638852128 0.00276562984208 0.0
-0.054907966172 -0.217500769047 0.0
-0.0253592349162 -0.00308530227816 0.0
0.384852086705 0.04330124965 0.0
-0.00683587098959 0.0343323803979 0.0
0.378918426832 -0.106700989467 0.0
-0.0549185148323 0.226551975351 0.0
-0.0038577233496 -0.00956510526566 0.0
-0.00903716375509 0.0042534333294 0.0
-0.100574415912 -0.499819698472 0.0
-0.00921029512674 -0.00472289882465 0.0
0.10420422659 0.131481507579 0.0
-0.00418969856355 0.00994621648587 0.0
-0.144817748999 0.0869200305604 0.0
-0.0901621197418 0.0934077905633 0.0
-0.148266695889 -0.102780778663 0.0
-0.0761567449158 0.00452565246699 0.0
0.0924500491609 0.0534531502713 0.0
-0.046335656679 0.121097412332 0.0
-0.0583973967772 -0.106131649864 0.0
-0.0489346738577 0.00562988558056 0.0
-0.0272474791134 0.101595138664 0.0
-0.0308772767744 0.0759968490286 0.0
-0.106343394596 -0.204806038342 0.0
-0.0416374784193 -0.00620959411321 0.0
-0.115068389216 0.0294283654024 0.0
-0.107436116061 0.00953516116614 0.0
-0.110004849148 -0.00811450936602 0.0
-0.122625238206 0.0107613678284 0.0
-0.000836641521149 -0.00214450127156 0.0
-0.0006453651507 -0.00092420158118 0.0
-0.00240011620015 0.00143587100771 0.0
-0.000693573152225 0.000912727022275 0.0
0.366741305392 -0.148399964917 0.0
0.0609761903837 -0.374822860076 0.0
-0.0673147117514 0.269388896338 0.0
-0.0602066172931 0.282876546979 0.0
-0.00233951896429 -0.00149629448053 0.0
-0.000965551790216 0.00227804216941 0.0
-0.0603538819058 -0.512278597759 0.0
0.118193273461 0.151414677171 0.0
-0.094788540593 0.0106062338474 0.0
-0.10151028329 0.0275788158705 0.0
-0.147943271843 0.0999841513503 0.0
-0.121800344961 0.108846529512 0.0
-0.132872869153 0.119188594066 0.0
-0.177758547187 -0.0920392618249 0.0
-0.182024976421 -0.128769256176 0.0
-0.208360856287 -0.107732719341 0.0
-0.0895916186785 0.0758258888979 0.0
-0.0733065720054 0.0812054697082 0.0
-0.0752675799758 0.0657632447743 0.0
-0.0855169639908 -0.000452195270676 0.0
-0.0755918793013 -0.00534684100427 0.0
-0.0823548896496 -0.0136575361668 0.0
-0.124659039561 0.0838675887574 0.0
-0.142187457369 0.0662543774907 0.0
-0.143158800131 0.0862675201905 0.0
-0.154651981718 0.090758451171 0.0
-0.140301081135 0.1052860384 0.0
-0.160997031459 -0.0323289994407 0.0
-0.152244968569 -0.00783930531251 0.0
-0.132993483205 -0.0283028874719 0.0
-0.168164488266 -0.0604365633962 0.0
-0.190853438332 -0.0407364133168 0.0
-0.103460877086 0.0917374605842 0.0
-0.0810020299611 0.108459964125 0.0
-0.0739162321892 0.0995814789261 0.0
-0.0589606602013 0.0842941945346 0.0
-0.142354881464 -0.124009916993 0.0
-0.167913505452 -0.160740309614 0.0
-0.0706287763481 0.00282756088738 0.0
-0.0664818795536 -0.00521621757105 0.0
-0.0711579429933 0.15451869932 0.0
-0.0892565852337 0.168005309613 0.0
-0.0711111761442 0.177494099184 0.0
0.0164586671883 0.0200249722805 0.0
-0.0618785845232 -0.0227169787571 0.0
0.0729532846397 -0.0245424709854 0.0
-0.0501530474962 0.0142661517685 0.0
-0.0493332282716 0.0213912515509 0.0
-0.0400207003597 0.0148919406069 0.0
-0.0524841743594 -0.0732773031562 0.0
-0.0522647271994 -0.0580826982141 0.0
-0.0335414138986 -0.0524186713622 0.0
-0.102388163856 0.175424657649 0.0
-0.105647638843 0.156117215163 0.0
-0.133274203414 -0.0947460572604 0.0
-0.153739282426 -0.0337257661764 0.0
-0.0455572879806 0.0290041738287 0.0
-0.0573956581874 0.0292540971024 0.0
-0.0499686602991 -0.0434767608228 0.0
-0.0685698076636 -0.0537781086595 0.0
-0.202064362549 -0.301197790635 0.0
-0.221935312065 -0.221127579501 0.0
-0.199935847966 -0.242246405904 0.0
-0.0391978575277 0.139823406929 0.0
-0.0895755041932 0.149052268478 0.0
-0.0519227840077 0.128153100383 0.0
-0.0431772653506 -0.0159992755533 0.0
-0.0542489081713 -0.0222022221912 0.0
-0.0534795746183 -0.0140933431413 0.0
-0.028727276082 0.0460520648413 0.0
-0.0419393000507 0.0497977521833 0.0
-0.0384507627719 0.0598207668632 0.0
-0.104150546017 0.0466332500165 0.0
-0.0916650891646 0.0422267215366 0.0
0.61897966757 0.0164306646721 0.0
0.638370117569 0.013579715795 0.0
-0.00400364970121 0.0359128433038 0.0
-0.00479635517793 0.0457572757104 0.0
-0.0165218104889 -0.0973286734819 0.0
-0.0118432974775 -0.0705144460437 0.0
-0.0244955089922 -0.000738996010552 0.0
-0.0256923690108 9.69052299983e-05 0.0
-0.0171999027929 -0.117258855377 0.0
-0.0573272780034 -0.187493157148 0.0
-0.020007087556 -0.00112128432385 0.0
-0.0320873122707 -0.00275885007315 0.0
0.647814759197 0.0154559495631 0.0
0.341225248265 0.0466710539451 0.0
-0.0025398107166 0.0244538822889 0.0
-0.0105534427416 0.0480661262993 0.0
-0.143659582786 -0.0769716737122 0.0
-0.0836317407699 0.0129377019532 0.0
-0.224336426196 -0.143118229516 0.0
-0.198984737507 -0.172008476097 0.0
-0.113459102021 0.149294865536 0.0
-0.104657868665 0.167633811182 0.0
-0.0652813819062 -0.0293468199748 0.0
-0.0514914572369 -0.0319052094874 0.0
-0.0537745702325 0.0480278540501 0.0
-0.0430712785245 0.03848952983 0.0
-0.135866999931 0.120819358386 0.0
-0.12612712645 0.120200993845 0.0
-0.0798233869859 0.0511697357555 0.0
-0.0804633208215 0.0359487009739 0.0
-0.118840775302 0.0481540771354 0.0
-0.105029125926 0.0639816579891 0.0
-0.156402651557 0.0447076422735 0.0
-0.136408433144 0.0484576630978 0.0
-0.141014834399 0.0120689781814 0.0
-0.161280528696 0.0177487220682 0.0
-0.107631322846 -0.226911334741 0.0
-0.107373102273 -0.273485486241 0.0
-0.0420538039299 -0.00508061113481 0.0
-0.0343392550502 -0.00592780292048 0.0
0.137564491992 0.0794356367014 0.0
0.182584059325 0.0771514059362 0.0
-0.0214872596028 0.0618545639047 0.0
-0.0144288514213 0.0457051516762 0.0
0.706951825814 -0.0120382777654 0.0
0.669341256305 -0.0237615708273 0.0
-0.0106689932214 0.104431563692 0.0
-0.0155981945187 0.130933616271 0.0
-0.00199434350429 -0.0137515476053 0.0
-0.00179694774962 -0.00995886008589 0.0
-0.0136811662012 0.0016971094911 0.0
-0.0108324563289 0.00193901285992 0.0
-0.0480524885443 -0.323175190184 0.0
-0.0377086349504 -0.243687657247 0.0
-0.0117560281043 -0.00234447666556 0.0
-0.0153974740434 -0.00211399825532 0.0
0.452320151638 0.0418053413693 0.0
0.52298504004 0.0301419510788 0.0
-0.00213323880944 0.0110598129619 0.0
-0.00237817007992 0.0153139613202 0.0
0.387385059796 0.0306745416801 0.0
0.698606533694 0.00720150785376 0.0
-0.0164015906224 0.0821087347715 0.0
-0.00442119997343 0.0508849696081 0.0
-0.0286679629237 -0.0942024876169 0.0
-0.00643881184023 -0.0450078888928 0.0
-0.0356055257515 0.00129627327538 0.0
-0.0228175044033 0.000813860850508 0.0
-0.15667716892 -0.347361813592 0.0
-0.183301954517 -0.364529949169 0.0
0.0671802751858 0.111333560277 0.0
-0.0294538807471 0.153329500351 0.0
-0.0334873540282 -0.00988891266742 0.0
-0.0316995477148 -0.0151759441612 0.0
-0.016910329009 0.0392885235709 0.0
-0.0202390157397 0.032954493716 0.0
0.0251366669342 0.0707984783877 0.0
0.16739553673 0.0562844342907 0.0
0.0658826879562 0.0778826221032 0.0
-0.0523397095504 0.112592269346 0.0
-0.0327405944866 0.100224630185 0.0
-0.0387041434317 0.0930632061823 0.0
-0.0872193389042 -0.125530462175 0.0
-0.0607106637871 -0.125158702499 0.0
-0.0968490793047 -0.158079948334 0.0
-0.0560881766025 0.00437868796727 0.0
-0.0465618110682 0.00198910851792 0.0
-0.0523869231387 -0.00033194008474 0.0
-0.200204812106 0.00515576708001 0.0
-0.183982646616 -0.00550223999037 0.0
-0.170861298849 0.0365052469784 0.0
-0.113629822897 0.136972363166 0.0
-0.108908788484 0.120371463598 0.0
-0.111583120051 -0.0443806947428 0.0
-0.0905492858317 -0.0546152637941 0.0
-0.112842230087 -0.0670224438364 0.0
-0.0690592828415 0.0311046829261 0.0
-0.0765293950772 0.0229091841421 0.0
0.160320669424 -0.132090825452 0.0
0.134652491407 -0.0751697348688 0.0
-0.0141217050656 -0.172548300887 0.0
-0.0750371029709 0.222356773996 0.0
-0.0709772519641 0.200359186823 0.0
-0.0903419279334 0.210628048448 0.0
-0.0138482993611 -0.0231054764613 0.0
-0.0208788654464 -0.0353586407612 0.0
-0.0245670076333 -0.0284684719156 0.0
-0.0205532148921 0.011420316061 0.0
-0.0294616197715 0.0133461316341 0.0
-0.0268747116648 0.0191914871531 0.0
-0.209043993908 -0.0684652580992 0.0
-0.119129807862 0.14626317809 0.0
-0.0762961009918 -0.0404545744147 0.0
-0.0623070997738 0.0402936768812 0.0
-0.192974351742 0.0170037162751 0.0
-0.20455958703 -0.0197607253324 0.0
-0.213020413306 -0.0630802986528 0.0
-0.111291576305 -0.0252955123138 0.0
-0.0943892838295 -0.0207735970636 0.0
0.743824503207 0.00253604859605 0.0
-0.00417478102222 0.0558698695442 0.0
-0.00365736147701 -0.0298388808299 0.0
-0.0193746901329 0.00107600654161 0.0
-0.0166905524346 0.0982591442795 0.0
-0.0528512804731 0.1151530974 0.0
-0.138754519636 -0.179303734794 0.0
-0.177798633271 -0.202079420735 0.0
-0.0454735886594 0.0854601881106 0.0
-0.0457260850505 0.0732019596663 0.0
-0.0578143666837 -0.00375743569152 0.0
-0.0590552505679 -0.00933164728803 0.0
0.386041923934 -0.0813939552815 0.0
0.647615463793 -0.0352000279534 0.0
-0.0489611419441 0.207684071697 0.0
-0.0200851855636 0.152864881351 0.0
-0.005871820795 -0.0152766854554 0.0
-0.00124581742075 -0.00609690749089 0.0
-0.0140241255054 0.00549227040457 0.0
-0.00722405734328 0.00167730687895 0.0
-0.0487664123635 -0.378250539354 0.0
-0.116710774522 -0.468695845694 0.0
-0.00759640769838 -0.00194483649846 0.0
-0.014555790441 -0.00627939095522 0.0
0.420515898387 0.050250859066 0.0
0.11168593332 0.12046750673 0.0
-0.00147054366972 0.00675636553344 0.0
-0.00638969587831 0.0156483980409 0.0
-0.0488645601765 0.172213812113 0.0
0.258223512705 -0.0218679627833 0.0
-0.031144578504 0.00897715285775 0.0
-0.0182279240227 -0.0419756369191 0.0
-0.138257769392 -0.291482415808 0.0
-0.146280320246 -0.410952270359 0.0
-0.0833993264461 0.192167862068 0.0
-0.0326364484916 0.17231928432 0.0
-0.0286039718472 -0.0216658896801 0.0
-0.0214696545805 -0.0129483626365 0.0
-0.0238068990881 0.0260555358948 0.0
-0.0141721951964 0.0221396393124 0.0
-0.00100223670007 -0.00372751540875 0.0
0.562146386194 -0.0625954257379 0.0
-0.00453524911059 0.00154144961243 0.0
-0.0339055313121 0.197786894342 0.0
-0.0570404256294 -0.455636609276 0.0
-0.00460551489986 -0.00169321507294 0.0
0.314237763402 0.0776705146558 0.0
-0.00116719563937 0.00406996739605 0.0
0.244207997076 0.0376048603809 0.0
-0.0313867287389 0.112389111323 0.0
-0.0378089999243 -0.0913927392599 0.0
-0.041818127938 0.00399551868321 0.0
-0.00402500625493 -0.00723717072245 0.0
-0.00676488813423 0.00474177254498 0.0
0.234234290553 -0.19779786617 0.0
-0.078879686427 0.259435674019 0.0
-0.0709578130672 -0.486540957287 0.0
-0.00662092479178 -0.00504619932741 0.0
-0.00835189793876 0.190449936813 0.0
-0.00437181159155 0.00736330782562 0.0
-0.131096919576 -0.18213000474 0.0
-0.0981632265145 0.188983612406 0.0
-0.037658758664 -0.0319104210469 0.0
-0.0344462297624 0.0283926321889 0.0
-0.132872850562 0.0670298967464 0.0
-0.169515907171 0.0616146042543 0.0
-0.0908224535011 0.113848241052 0.0
-0.107601755236 0.1003591968 0.0
-0.12127149504 -0.0929298096821 0.0
-0.0730548528763 0.0123797801107 0.0
0.0714864425384 0.0855907651604 0.0
-0.0315179796313 0.0771864679225 0.0
0.0129353741677 0.105083976879 0.0
-0.0328876156733 0.0671997300946 0.0
-0.113980391672 -0.196009721909 0.0
-0.0492532963313 -0.00384969434532 0.0
-0.154986560852 -0.234561843147 0.0
-0.0501671657433 -0.00815629390394 0.0
0.762028623694 -0.00378232321382 0.0
0.491813722727 -0.0131194172907 0.0
-0.00608080886839 0.0759241400822 0.0
-0.0246250913214 0.139442058779 0.0
0.276222810571 0.0643231703037 0.0
0.366190163281 0.00197915050654 0.0
-0.0312454338384 0.139283147406 0.0
-0.0870418365983 -0.302972618097 0.0
-0.0079389690205 0.0303758201787 0.0
-0.0250768401572 -0.00482846629021 0.0
0.621358835407 0.0185984240578 0.0
-0.022664705943 -0.160039042218 0.0
-0.00211875325451 0.0183547717045 0.0
-0.017154812018 -0.0014647150414 0.0
-0.00173616989478 -0.0162895203445 0.0
-0.0076973917146 -0.0294774675668 0.0
-0.0145779398462 0.0011565237153 0.0
-0.0227729844126 0.00421242633232 0.0
-0.0156039541371 -0.0470266749899 0.0
-0.03102761292 0.00563669939696 0.0
-0.0679890716834 0.0715569469898 0.0
-0.0725323913356 0.118418601733 0.0
-0.104165545649 -0.10968221515 0.0
-0.0643850740829 0.00863041155623 0.0
-0.165355241982 0.0772592015374 0.0
-0.18008217856 0.0500359083016 0.0
-0.106446838425 0.081199078513 0.0
0.173106834443 -0.184991395493 0.0
-0.0794649219672 0.241560131997 0.0
-0.100497807597 -0.440880024276 0.0
-0.00883011358712 -0.0143218851094 0.0
-0.036170996616 0.190409777084 0.0
-0.0131378877638 0.00870383780664 0.0
-0.0132278724128 -0.00956083238405 0.0
-0.00925813555008 0.0139963770963 0.0
0.123161693694 0.0359199243456 0.0
7.55072927228e-05 0.0525032305231 0.0
-0.0503462665556 0.13732487568 0.0
-0.06543722682 0.133080333872 0.0
-0.0724614137375 -0.0968773511732 0.0
-0.0457694441705 -0.0839132311789 0.0
-0.0466808786475 0.00825881090877 0.0
-0.0560822764845 0.0101989556838 0.0
-0.125871349695 0.134565046025 0.0
-0.224264883122 -0.101796931355 0.0
-0.0665946736242 0.0531996292751 0.0
-0.0791207642703 -0.0262264113559 0.0
0.0220019960374 -0.332964332187 0.0
-0.0833289653954 0.239588970193 0.0
-0.00871737383662 -0.00977022620177 0.0
-0.00899791286551 0.00933552772428 0.0
-0.175663922757 0.032610074783 0.0
0.51946764938 0.00725991644232 0.0
0.774540304475 -0.000518304869646 0.0
-0.015706637645 0.10149662556 0.0
-0.00429477843617 0.0614275727411 0.0
0.297525787893 0.0206154939918 0.0
-0.0321174244503 0.126955942038 0.0