# vtk DataFile Version 2.0
2D Simulation Python
ASCII
DATASET UNSTRUCTURED_GRID
FIELD FieldData 1
NODES 1 2 int
7905 15488

POINTS 7905 double
0.0 0.0 0.0
1.0 0.0 0.0
1.0 1.0 0.0
0.0 1.0 0.0
0.01249999999997639 0.0 0.0
0.02499999999995297 0.0 0.0
0.03749999999992721 0.0 0.0
0.04999999999989927 0.0 0.0
0.0624999999998716 0.0 0.0
0.07499999999985263 0.0 0.0
0.08749999999983366 0.0 0.0
0.09999999999981467 0.0 0.0
0.1124999999997956 0.0 0.0
0.1249999999997765 0.0 0.0
0.1374999999997401 0.0 0.0
0.1499999999997036 0.0 0.0
0.1624999999996672 0.0 0.0
0.1749999999996308 0.0 0.0
0.1874999999995943 0.0 0.0
0.1999999999995579 0.0 0.0
0.2124999999995214 0.0 0.0
0.224999999999485 0.0 0.0
0.2374999999994485 0.0 0.0
0.2499999999994121 0.0 0.0
0.2624999999993757 0.0 0.0
0.2749999999993393 0.0 0.0
0.2874999999993028 0.0 0.0
0.2999999999992664 0.0 0.0
0.3124999999992299 0.0 0.0
0.3249999999991935 0.0 0.0
0.3374999999991571 0.0 0.0
0.3499999999991207 0.0 0.0
0.3624999999990842 0.0 0.0
0.3749999999990478 0.0 0.0
0.3874999999990113 0.0 0.0
0.3999999999989749 0.0 0.0
0.4124999999989398 0.0 0.0
0.4249999999989048 0.0 0.0
0.4374999999988697 0.0 0.0
0.4499999999988346 0.0 0.0
0.4624999999987995 0.0 0.0
0.4749999999987644 0.0 0.0
0.4874999999987293 0.0 0.0
0.4999999999986943 0.0 0.0
0.5124999999987259 0.0 0.0
0.5249999999987575 0.0 0.0
0.5374999999987891 0.0 0.0
0.5499999999988205 0.0 0.0
0.5624999999988521 0.0 0.0
0.5749999999988837 0.0 0.0
0.5874999999989152 0.0 0.0
0.5999999999989468 0.0 0.0
0.6124999999989797 0.0 0.0
0.6249999999990127 0.0 0.0
0.6374999999990456 0.0 0.0
0.6499999999990784 0.0 0.0
0.6624999999991114 0.0 0.0
0.6749999999991443 0.0 0.0
0.6874999999991771 0.0 0.0
0.69999999999921 0.0 0.0
0.712499999999243 0.0 0.0
0.7249999999992759 0.0 0.0
0.7374999999993088 0.0 0.0
0.7499999999993416 0.0 0.0
0.7624999999993746 0.0 0.0
0.7749999999994075 0.0 0.0
0.7874999999994404 0.0 0.0
0.7999999999994734 0.0 0.0
0.8124999999995063 0.0 0.0
0.8249999999995392 0.0 0.0
0.8374999999995721 0.0 0.0
0.8499999999996051 0.0 0.0
0.862499999999638 0.0 0.0
0.8749999999996709 0.0 0.0
0.8874999999997039 0.0 0.0
0.8999999999997368 0.0 0.0
0.9124999999997697 0.0 0.0
0.9249999999998026 0.0 0.0
0.9374999999998355 0.0 0.0
0.9499999999998684 0.0 0.0
0.9624999999999013 0.0 0.0
0.9749999999999343 0.0 0.0
0.9874999999999672 0.0 0.0
1.0 0.01249999999997639 0.0
1.0 0.02499999999995297 0.0
1.0 0.03749999999992721 0.0
1.0 0.04999999999989927 0.0
1.0 0.0624999999998716 0.0
1.0 0.07499999999985263 0.0
1.0 0.08749999999983366 0.0
1.0 0.09999999999981467 0.0
1.0 0.1124999999997956 0.0
1.0 0.1249999999997765 0.0
1.0 0.1374999999997401 0.0
1.0 0.1499999999997036 0.0
1.0 0.1624999999996672 0.0
1.0 0.1749999999996308 0.0
1.0 0.1874999999995943 0.0
1.0 0.1999999999995579 0.0
1.0 0.2124999999995214 0.0
1.0 0.224999999999485 0.0
1.0 0.2374999999994485 0.0
1.0 0.2499999999994121 0.0
1.0 0.2624999999993757 0.0
1.0 0.2749999999993393 0.0
1.0 0.2874999999993028 0.0
1.0 0.2999999999992664 0.0
1.0 0.3124999999992299 0.0
1.0 0.3249999999991935 0.0
1.0 0.3374999999991571 0.0
1.0 0.3499999999991207 0.0
1.0 0.3624999999990842 0.0
1.0 0.3749999999990478 0.0
1.0 0.3874999999990113 0.0
1.0 0.3999999999989749 0.0
1.0 0.4124999999989398 0.0
1.0 0.4249999999989048 0.0
1.0 0.4374999999988697 0.0
1.0 0.4499999999988346 0.0
1.0 0.4624999999987995 0.0
1.0 0.4749999999987644 0.0
1.0 0.4874999999987293 0.0
1.0 0.4999999999986943 0.0
1.0 0.5124999999987259 0.0
1.0 0.5249999999987575 0.0
1.0 0.5374999999987891 0.0
1.0 0.5499999999988205 0.0
1.0 0.5624999999988521 0.0
1.0 0.5749999999988837 0.0
1.0 0.5874999999989152 0.0
1.0 0.5999999999989468 0.0
1.0 0.6124999999989797 0.0
1.0 0.6249999999990127 0.0
1.0 0.6374999999990456 0.0
1.0 0.6499999999990784 0.0
1.0 0.6624999999991114 0.0
1.0 0.6749999999991443 0.0
1.0 0.6874999999991771 0.0
1.0 0.69999999999921 0.0
1.0 0.712499999999243 0.0
1.0 0.7249999999992759 0.0
1.0 0.7374999999993088 0.0
1.0 0.7499999999993416 0.0
1.0 0.7624999999993746 0.0
1.0 0.7749999999994075 0.0
1.0 0.7874999999994404 0.0
1.0 0.7999999999994734 0.0
1.0 0.8124999999995063 0.0
1.0 0.8249999999995392 0.0
1.0 0.8374999999995721 0.0
1.0 0.8499999999996051 0.0
1.0 0.862499999999638 0.0
1.0 0.8749999999996709 0.0
1.0 0.8874999999997039 0.0
1.0 0.8999999999997368 0.0
1.0 0.9124999999997697 0.0
1.0 0.9249999999998026 0.0
1.0 0.9374999999998355 0.0
1.0 0.9499999999998684 0.0
1.0 0.9624999999999013 0.0
1.0 0.9749999999999343 0.0
1.0 0.9874999999999672 0.0
0.9874999999999439 1.0 0.0
0.9749999999998877 1.0 0.0
0.9624999999998541 1.0 0.0
0.9499999999998356 1.0 0.0
0.9374999999997805 1.0 0.0
0.9249999999996992 1.0 0.0
0.9124999999996414 1.0 0.0
0.8999999999995836 1.0 0.0
0.8874999999996454 1.0 0.0
0.8749999999997078 1.0 0.0
0.8624999999997771 1.0 0.0
0.8499999999998515 1.0 0.0
0.837499999999895 1.0 0.0
0.8249999999999216 1.0 0.0
0.8124999999999571 1.0 0.0
0.7999999999999998 1.0 0.0
0.7875000000000937 1.0 0.0
0.77500000000021 1.0 0.0
0.7625000000002968 1.0 0.0
0.7500000000003858 1.0 0.0
0.7375000000004739 1.0 0.0
0.7250000000005448 1.0 0.0
0.7125000000005861 1.0 0.0
0.7000000000006934 1.0 0.0
0.6875000000008109 1.0 0.0
0.6750000000009306 1.0 0.0
0.6625000000010091 1.0 0.0
0.6500000000010593 1.0 0.0
0.6375000000011386 1.0 0.0
0.6250000000012101 1.0 0.0
0.612500000001312 1.0 0.0
0.6000000000013869 1.0 0.0
0.5875000000014601 1.0 0.0
0.5750000000015277 1.0 0.0
0.5625000000016089 1.0 0.0
0.5500000000016854 1.0 0.0
0.5375000000017889 1.0 0.0
0.5250000000018821 1.0 0.0
0.5125000000019756 1.0 0.0
0.5000000000020587 1.0 0.0
0.4875000000020093 1.0 0.0
0.4750000000019601 1.0 0.0
0.4625000000019108 1.0 0.0
0.4500000000018616 1.0 0.0
0.4375000000018123 1.0 0.0
0.425000000001763 1.0 0.0
0.4125000000017136 1.0 0.0
0.4000000000016644 1.0 0.0
0.3875000000016123 1.0 0.0
0.3750000000015603 1.0 0.0
0.3625000000015083 1.0 0.0
0.3500000000014563 1.0 0.0
0.3375000000014042 1.0 0.0
0.3250000000013522 1.0 0.0
0.3125000000013003 1.0 0.0
0.3000000000012483 1.0 0.0
0.2875000000011962 1.0 0.0
0.2750000000011442 1.0 0.0
0.2625000000010922 1.0 0.0
0.2500000000010403 1.0 0.0
0.2375000000009883 1.0 0.0
0.2250000000009362 1.0 0.0
0.2125000000008842 1.0 0.0
0.2000000000008322 1.0 0.0
0.1875000000007802 1.0 0.0
0.1750000000007281 1.0 0.0
0.1625000000006761 1.0 0.0
0.1500000000006241 1.0 0.0
0.1375000000005721 1.0 0.0
0.12500000000052 1.0 0.0
0.112500000000468 1.0 0.0
0.100000000000416 1.0 0.0
0.08750000000036395 1.0 0.0
0.07500000000031193 1.0 0.0
0.06250000000026001 1.0 0.0
0.05000000000020799 1.0 0.0
0.03750000000015596 1.0 0.0
0.02500000000010394 1.0 0.0
0.01250000000005191 1.0 0.0
0.0 0.9874999999999439 0.0
0.0 0.9749999999998877 0.0
0.0 0.9624999999998541 0.0
0.0 0.9499999999998356 0.0
0.0 0.9374999999997805 0.0
0.0 0.9249999999996992 0.0
0.0 0.9124999999996414 0.0
0.0 0.8999999999995836 0.0
0.0 0.8874999999996454 0.0
0.0 0.8749999999997078 0.0
0.0 0.8624999999997771 0.0
0.0 0.8499999999998515 0.0
0.0 0.837499999999895 0.0
0.0 0.8249999999999216 0.0
0.0 0.8124999999999571 0.0
0.0 0.7999999999999998 0.0
0.0 0.7875000000000937 0.0
0.0 0.77500000000021 0.0
0.0 0.7625000000002968 0.0
0.0 0.7500000000003858 0.0
0.0 0.7375000000004739 0.0
0.0 0.7250000000005448 0.0
0.0 0.7125000000005861 0.0
0.0 0.7000000000006934 0.0
0.0 0.6875000000008109 0.0
0.0 0.6750000000009306 0.0
0.0 0.6625000000010091 0.0
0.0 0.6500000000010593 0.0
0.0 0.6375000000011386 0.0
0.0 0.6250000000012101 0.0
0.0 0.612500000001312 0.0
0.0 0.6000000000013869 0.0
0.0 0.5875000000014601 0.0
0.0 0.5750000000015277 0.0
0.0 0.5625000000016089 0.0
0.0 0.5500000000016854 0.0
0.0 0.5375000000017889 0.0
0.0 0.5250000000018821 0.0
0.0 0.5125000000019756 0.0
0.0 0.5000000000020587 0.0
0.0 0.4875000000020093 0.0
0.0 0.4750000000019601 0.0
0.0 0.4625000000019108 0.0
0.0 0.4500000000018616 0.0
0.0 0.4375000000018123 0.0
0.0 0.425000000001763 0.0
0.0 0.4125000000017136 0.0
0.0 0.4000000000016644 0.0
0.0 0.3875000000016123 0.0
0.0 0.3750000000015603 0.0
0.0 0.3625000000015083 0.0
0.0 0.3500000000014563 0.0
0.0 0.3375000000014042 0.0
0.0 0.3250000000013522 0.0
0.0 0.3125000000013003 0.0
0.0 0.3000000000012483 0.0
0.0 0.2875000000011962 0.0
0.0 0.2750000000011442 0.0
0.0 0.2625000000010922 0.0
0.0 0.2500000000010403 0.0
0.0 0.2375000000009883 0.0
0.0 0.2250000000009362 0.0
0.0 0.2125000000008842 0.0
0.0 0.2000000000008322 0.0
0.0 0.1875000000007802 0.0
0.0 0.1750000000007281 0.0
0.0 0.1625000000006761 0.0
0.0 0.1500000000006241 0.0
0.0 0.1375000000005721 0.0
0.0 0.12500000000052 0.0
0.0 0.112500000000468 0.0
0.0 0.100000000000416 0.0
0.0 0.08750000000036395 0.0
0.0 0.07500000000031193 0.0
0.0 0.06250000000026001 0.0
0.0 0.05000000000020799 0.0
0.0 0.03750000000015596 0.0
0.0 0.02500000000010394 0.0
0.0 0.01250000000005191 0.0
0.499547313951317 0.4984202829398231 0.0
0.7057142553715264 0.7049957919913439 0.0
0.2942617789825218 0.706558362574613 0.0
0.7052750732513358 0.29408370064617073 0.0
0.2941161372558304 0.29425664999463297 0.0
0.49473409022248005 0.7865288457870021 0.0
0.21400675843102512 0.49559804899934157 0.0
0.7879606576561358 0.5053778129282838 0.0
0.505369301426186 0.2119891966328729 0.0
0.8286074034533916 0.8287576993256224 0.0
0.17122528584787128 0.8286011816233976 0.0
0.8287577004551061 0.17139259539200086 0.0
0.17140751986106711 0.17123186221929698 0.0
0.6412438345717256 0.8516520873564006 0.0
0.14868333985619164 0.6419476520576217 0.0
0.36001439100831745 0.8471882363166383 0.0
0.8472916681795735 0.639858398754968 0.0
0.8516551147624887 0.3587551765143301 0.0
0.1529024464427883 0.36006180552290556 0.0
0.3587547979315107 0.148343271772372 0.0
0.6398585806283599 0.15270777331315408 0.0
0.5665851234669081 0.6415505082226679 0.0
0.3688065763014604 0.5781443560211958 0.0
0.6448511073779454 0.4469929790001165 0.0
0.43335085497228876 0.35323599965884955 0.0
0.42653529248703315 0.6555720715037009 0.0
0.6657620768186652 0.5502649260729648 0.0
0.3566111211511165 0.42874186251021185 0.0
0.5447859278293945 0.34262223816401394 0.0
0.4594948214297615 0.8920313032464312 0.0
[...]
POINT_DATA 7905
VECTORS vector double
0.0 0.0 0.0
0.0 0.0 0.0
0.0 0.0 0.0
0.0 0.0 0.0
0.0 0.0 0.0
0.0 0.0 0.0
0.0 0.0 0.0
0.0 0.0 0.0
0.0 0.0 0.0
0.0 0.0 0.0
0.0 0.0 0.0
0.0 0.0 0.0
0.0 0.0 0.0
0.0 0.0 0.0
0.0 0.0 0.0
0.0 0.0 0.0
0.0 0.0 0.0
0.0 0.0 0.0
0.0 0.0 0.0
0.0 0.0 0.0
0.0 0.0 0.0
0.0 0.0 0.0
0.0 0.0 0.0
0.0 0.0 0.0
0.0 0.0 0.0
0.0 0.0 0.0
0.0 0.0 0.0
0.0 0.0 0.0
0.0 0.0 0.0
0.0 0.0 0.0
0.0 0.0 0.0
0.0 0.0 0.0
0.0 0.0 0.0
0.0 0.0 0.0
0.0 0.0 0.0
0.0 0.0 0.0
0.0 0.0 0.0
0.0 0.0 0.0
0.0 0.0 0.0
0.0 0.0 0.0
0.0 0.0 0.0
0.0 0.0 0.0
0.0 0.0 0.0
0.0 0.0 0.0
0.0 0.0 0.0
0.0 0.0 0.0
0.0 0.0 0.0
0.0 0.0 0.0
0.0 0.0 0.0
0.0 0.0 0.0
0.0 0.0 0.0
0.0 0.0 0.0
0.0 0.0 0.0
0.0 0.0 0.0
0.0 0.0 0.0
0.0 0.0 0.0
0.0 0.0 0.0
0.0 0.0 0.0
0.0 0.0 0.0
0.0 0.0 0.0
0.0 0.0 0.0
0.0 0.0 0.0
0.0 0.0 0.0
0.0 0.0 0.0
0.0 0.0 0.0
0.0 0.0 0.0
0.0 0.0 0.0
0.0 0.0 0.0
0.0 0.0 0.0
0.0 0.0 0.0
0.0 0.0 0.0
0.0 0.0 0.0
0.0 0.0 0.0
0.0 0.0 0.0
0.0 0.0 0.0
0.0 0.0 0.0
0.0 0.0 0.0
0.0 0.0 0.0
0.0 0.0 0.0
0.0 0.0 0.0
0.0 0.0 0.0
0.0 0.0 0.0
0.0 0.0 0.0
0.0 0.0 0.0
0.0 0.0 0.0
0.0 0.0 0.0
0.0 0.0 0.0
0.0 0.0 0.0
0.0 0.0 0.0
0.0 0.0 0.0
0.0 0.0 0.0
0.0 0.0 0.0
0.0 0.0 0.0
0.0 0.0 0.0
0.0 0.0 0.0
0.0 0.0 0.0
0.0 0.0 0.0
0.0 0.0 0.0
0.0 0.0 0.0
0.0 0.0 0.0
0.0 0.0 0.0
0.0 0.0 0.0
0.0 0.0 0.0
0.0 0.0 0.0
0.0 0.0 0.0
0.0 0.0 0.0
0.0 0.0 0.0
0.0 0.0 0.0
0.0 0.0 0.0
0.0 0.0 0.0
0.0 0.0 0.0
0.0 0.0 0.0
0.0 0.0 0.0
0.0 0.0 0.0
0.0 0.0 0.0
0.0 0.0 0.0
0.0 0.0 0.0
0.0 0.0 0.0
0.0 0.0 0.0
0.0 0.0 0.0
0.0 0.0 0.0
0.0 0.0 0.0
0.0 0.0 0.0
0.0 0.0 0.0
0.0 0.0 0.0
0.0 0.0 0.0
0.0 0.0 0.0
0.0 0.0 0.0
0.0 0.0 0.0
0.0 0.0 0.0
0.0 0.0 0.0
0.0 0.0 0.0
0.0 0.0 0.0
0.0 0.0 0.0
0.0 0.0 0.0
0.0 0.0 0.0
0.0 0.0 0.0
0.0 0.0 0.0
0.0 0.0 0.0
0.0 0.0 0.0
0.0 0.0 0.0
0.0 0.0 0.0
0.0 0.0 0.0
0.0 0.0 0.0
0.0 0.0 0.0
0.0 0.0 0.0
0.0 0.0 0.0
0.0 0.0 0.0
0.0 0.0 0.0
0.0 0.0 0.0
0.0 0.0 0.0
0.0 0.0 0.0
0.0 0.0 0.0
0.0 0.0 0.0
0.0 0.0 0.0
0.0 0.0 0.0
0.0 0.0 0.0
0.0 0.0 0.0
0.0 0.0 0.0
0.0 0.0 0.0
0.0 0.0 0.0
0.0 0.0 0.0
1.0 0.0 0.0
1.0 0.0 0.0
1.0 0.0 0.0
1.0 0.0 0.0
1.0 0.0 0.0
1.0 0.0 0.0
1.0 0.0 0.0
1.0 0.0 0.0
1.0 0.0 0.0
1.0 0.0 0.0
1.0 0.0 0.0
1.0 0.0 0.0
1.0 0.0 0.0
1.0 0.0 0.0
1.0 0.0 0.0
1.0 0.0 0.0
1.0 0.0 0.0
1.0 0.0 0.0
1.0 0.0 0.0
1.0 0.0 0.0
1.0 0.0 0.0
1.0 0.0 0.0
1.0 0.0 0.0
1.0 0.0 0.0
1.0 0.0 0.0
1.0 0.0 0.0
1.0 0.0 0.0
1.0 0.0 0.0
1.0 0.0 0.0
1.0 0.0 0.0
1.0 0.0 0.0
1.0 0.0 0.0
1.0 0.0 0.0
1.0 0.0 0.0
1.0 0.0 0.0
1.0 0.0 0.0
1.0 0.0 0.0
1.0 0.0 0.0
1.0 0.0 0.0
1.0 0.0 0.0
1.0 0.0 0.0
1.0 0.0 0.0
1.0 0.0 0.0
1.0 0.0 0.0
1.0 0.0 0.0
1.0 0.0 0.0
1.0 0.0 0.0
1.0 0.0 0.0
1.0 0.0 0.0
1.0 0.0 0.0
1.0 0.0 0.0
1.0 0.0 0.0
1.0 0.0 0.0
1.0 0.0 0.0
1.0 0.0 0.0
1.0 0.0 0.0
1.0 0.0 0.0
1.0 0.0 0.0
1.0 0.0 0.0
1.0 0.0 0.0
1.0 0.0 0.0
1.0 0.0 0.0
1.0 0.0 0.0
1.0 0.0 0.0
1.0 0.0 0.0
1.0 0.0 0.0
1.0 0.0 0.0
1.0 0.0 0.0
1.0 0.0 0.0
1.0 0.0 0.0
1.0 0.0 0.0
1.0 0.0 0.0
1.0 0.0 0.0
1.0 0.0 0.0
1.0 0.0 0.0
1.0 0.0 0.0
1.0 0.0 0.0
1.0 0.0 0.0
1.0 0.0 0.0
0.0 0.0 0.0
0.0 0.0 0.0
0.0 0.0 0.0
0.0 0.0 0.0
0.0 0.0 0.0
0.0 0.0 0.0
0.0 0.0 0.0
0.0 0.0 0.0
0.0 0.0 0.0
0.0 0.0 0.0
0.0 0.0 0.0
0.0 0.0 0.0
0.0 0.0 0.0
0.0 0.0 0.0
0.0 0.0 0.0
0.0 0.0 0.0
0.0 0.0 0.0
0.0 0.0 0.0
0.0 0.0 0.0
0.0 0.0 0.0
0.0 0.0 0.0
0.0 0.0 0.0
0.0 0.0 0.0
0.0 0.0 0.0
0.0 0.0 0.0
0.0 0.0 0.0
0.0 0.0 0.0
0.0 0.0 0.0
0.0 0.0 0.0
0.0 0.0 0.0
0.0 0.0 0.0
0.0 0.0 0.0
0.0 0.0 0.0
0.0 0.0 0.0
0.0 0.0 0.0
0.0 0.0 0.0
0.0 0.0 0.0
0.0 0.0 0.0
0.0 0.0 0.0
0.0 0.0 0.0
0.0 0.0 0.0
0.0 0.0 0.0
0.0 0.0 0.0
0.0 0.0 0.0
0.0 0.0 0.0
0.0 0.0 0.0
0.0 0.0 0.0
0.0 0.0 0.0
0.0 0.0 0.0
0.0 0.0 0.0
0.0 0.0 0.0
0.0 0.0 0.0
0.0 0.0 0.0
0.0 0.0 0.0
0.0 0.0 0.0
0.0 0.0 0.0
0.0 0.0 0.0
0.0 0.0 0.0
0.0 0.0 0.0
0.0 0.0 0.0
0.0 0.0 0.0
0.0 0.0 0.0
0.0 0.0 0.0
0.0 0.0 0.0
0.0 0.0 0.0
0.0 0.0 0.0
0.0 0.0 0.0
0.0 0.0 0.0
0.0 0.0 0.0
0.0 0.0 0.0
0.0 0.0 0.0
0.0 0.0 0.0
0.0 0.0 0.0
0.0 0.0 0.0
0.0 0.0 0.0
0.0 0.0 0.0
0.0 0.0 0.0
0.0 0.0 0.0
0.0 0.0 0.0
-0.213522510134 0.0569678713541 0.0
-0.103579298796 -0.160717425324 0.0
-0.0529413023146 0.235013018857 0.0
-0.120425636279 -0.0816482947805 0.0
-0.0997393536432 0.0706145020009 0.0
0.0879952276159 0.111283283878 0.0
-0.0758830376947 0.175695250857 0.0
-0.188551241499 -0.254761601322 0.0
-0.119590500795 -0.00193492806735 0.0
0.0447848705232 -0.316971187363 0.0
-0.0553182667325 0.245731710589 0.0
-0.0236601953502 -0.0245236562978 0.0
-0.0305535669059 0.026956891063 0.0
0.285883918818 -0.00930066417796 0.0
-0.0374271417662 0.220608233161 0.0
0.12056677306 0.140061282086 0.0
-0.16693057506 -0.405040635691 0.0
-0.058725310108 -0.104572016088 0.0
-0.0438289971671 0.0958016003789 0.0
-0.0734252068873 0.017245975623 0.0
-0.0730556130661 -0.0216524103935 0.0
-0.140541137505 0.0354903367786 0.0
-0.128368370838 0.183229417001 0.0
-0.234624480372 -0.10574883972 0.0
-0.17097993494 0.0505691789276 0.0
-0.0925721890158 0.170537625968 0.0
-0.244256256128 -0.137422066949 0.0
-0.152095945335 0.118070116016 0.0
-0.189023867654 -0.0172406096774 0.0
0.391237691963 0.0628990251464 0.0
-0.0246798530317 0.120473108824 0.0
-0.0812977242867 -0.24392107943 0.0
-0.0817858822797 -0.00414537241598 0.0
0.448281663918 -0.0623070653204 0.0
-0.0274004095652 0.212232039145 0.0
-0.0133182797098 -0.0307982378094 0.0
-0.0358915106733 0.0107169170949 0.0
-0.106078029216 -0.492783648981 0.0
0.164245763821 0.118013253382 0.0
-0.0316239774454 -0.012516480632 0.0
-0.0173404620885 0.0419433677956 0.0
0.0669136843622 0.0139297641208 0.0
-0.0645968490249 0.226633090589 0.0
-0.157074625242 -0.15062514109 0.0
-0.130229251231 0.0356708785354 0.0
0.00584702906905 0.184933330155 0.0
-0.218546025872 -0.269498345473 0.0
-0.0966679564262 0.122379987674 0.0
-0.134705613875 -0.0383936182351 0.0
0.0739149311498 -0.369628617646 0.0
-0.0806192975723 0.256393706653 0.0
-0.00217565547344 -0.00317377989112 0.0
-0.00549585276452 0.00577832466437 0.0
0.539582169593 0.0159098060969 0.0
-0.0146629435327 0.138252667202 0.0
-0.0310586065688 -0.100837660107 0.0
-0.0532735599132 0.00355019903606 0.0
-0.128292577371 -0.342816079802 0.0
-0.0128107819735 0.216894570507 0.0
-0.0708340838754 -0.0448173079692 0.0
-0.0595588927388 0.0675579217374 0.0
0.0861486468132 -0.132119349226 0.0
-0.0487379489858 0.253417421431 0.0
-0.0633391041353 -0.0724464174713 0.0
-0.0700399041141 0.0380634803311 0.0
-0.162143928276 0.107973338313 0.0
-0.227708134229 -0.0186618398726 0.0
-0.17374508767 0.126694788199 0.0
-0.227476900755 -0.0206990555453 0.0
-0.175164948676 -0.0857250354495 0.0
-0.0818601218466 0.211979929009 0.0
-0.183657810102 -0.0790945222222 0.0
-0.135326946067 0.0843146211531 0.0
0.628589338585 -0.00795626956844 0.0
-0.0106239637002 0.141182675258 0.0
-0.0116939885656 -0.0428895594281 0.0
-0.0370825236798 0.00463482092887 0.0
-0.0631011101231 -0.306807236319 0.0
-0.0377799189019 -0.00627375027077 0.0
0.425715351677 0.0524225677369 0.0
-0.0121634828538 0.0590758129307 0.0
0.411005730126 -0.112320998802 0.0
-0.0473317700294 0.231287254208 0.0
-0.00376360974024 -0.00809118412224 0.0
-0.0141499040545 0.00654956607984 0.0
-0.074566190238 -0.536769423917 0.0
-0.00862342440264 -0.00586203647588 0.0
0.107354441585 0.135442828168 0.0
-0.00730979876574 0.0153523676392 0.0
-0.0531675882997 0.11626002569 0.0
-0.1210598056 0.173225226113 0.0
-0.233985112073 -0.192868892136 0.0
-0.155850564899 0.00466788929774 0.0
0.225886080842 0.0544261582168 0.0
-0.0481704731379 0.19394247807 0.0
-0.107560079055 -0.187825787197 0.0
-0.0924647552433 0.00856496056317 0.0
0.109548721221 0.133737351948 0.0
-0.0606901697654 0.135589782028 0.0
-0.186505347771 -0.328890057963 0.0
-0.0981695225936 -0.0166065613885 0.0
-0.200668964463 0.0585116313048 0.0
-0.202554799772 0.0164701287006 0.0
-0.209668081383 -0.0213115462038 0.0
-0.216923588174 0.0189867522468 0.0
-0.000350919705773 -0.000821841867312 0.0
-0.00026713816718 -0.000680716678575 0.0
-0.00289248033519 0.00200795184919 0.0
-0.00086842367348 0.00117208396711 0.0
0.368263820611 -0.14769024142 0.0
0.0623691357546 -0.374998879168 0.0
-0.0681940353972 0.26531439622 0.0
-0.0623323876827 0.280767148358 0.0
-0.0010048178197 -0.00135561380419 0.0
-0.00149490274412 0.00293017737517 0.0
-0.0518278855646 -0.519449402534 0.0
0.113405265646 0.149941325802 0.0
-0.184977555248 0.0184280808734 0.0
-0.187517695102 0.0550270949615 0.0
-0.0760861228426 0.148355583472 0.0
-0.0211062594571 0.153225337182 0.0
-0.0537532968331 0.179334941535 0.0
-0.246050395134 -0.171709744921 0.0
-0.238061155278 -0.22699889816 0.0
-0.236918721607 -0.189059201497 0.0
-0.136919830149 0.146124325753 0.0
-0.112166621949 0.152546970965 0.0
-0.126520166993 0.127419764474 0.0
-0.170825952838 -0.00600413041498 0.0
-0.150356403078 -0.0166116215198 0.0
-0.164734203556 -0.0340975274032 0.0
-0.153251330323 0.156281321354 0.0
-0.175992102476 0.122073589543 0.0
-0.147584607447 0.152074370532 0.0
-0.122710451887 0.146559900418 0.0
-0.11700296335 0.177466199952 0.0
-0.245204981646 -0.0685741283967 0.0
-0.237557013972 -0.0208152956938 0.0
-0.233279795338 -0.0617570529628 0.0
-0.247951644678 -0.119661252319 0.0
-0.240086326942 -0.0836749586403 0.0
0.0138039619251 0.116870416672 0.0
0.0358762892747 0.146260460487 0.0
-0.0979693240281 0.179297631234 0.0
-0.0893065231628 0.153957513895 0.0
-0.217122922905 -0.226267596419 0.0
-0.220904521682 -0.27364361762 0.0
-0.139454175409 0.00106092304017 0.0
-0.129280444212 -0.015908574476 0.0
-0.0546316117519 0.232508692462 0.0
-0.0570428338426 0.245378657844 0.0
-0.0450886529821 0.2434339351 0.0
0.145372730174 -0.00182951177269 0.0
0.0615295969246 -0.0598737822416 0.0
0.189308259366 -0.0553764217752 0.0
-0.0952798576064 0.0260615519643 0.0
-0.0945699815845 0.0400433081452 0.0
-0.0742601245548 0.0270433896686 0.0
-0.101003148701 -0.133941757199 0.0
-0.101389106392 -0.10877286039 0.0
-0.0629656267728 -0.0898790888598 0.0
-0.0514163161538 0.246498084626 0.0
-0.0663549991019 0.238158075623 0.0
-0.0231963642112 -0.147006656019 0.0
-0.0452378913332 -0.0767197852069 0.0
-0.0869087610202 0.0543349061817 0.0
-0.111040199887 0.0561833306321 0.0
-0.0948893415974 -0.0829626090049 0.0
-0.134743650772 -0.107468112077 0.0
-0.172558201319 -0.404704104155 0.0
-0.182344365861 -0.314792271105 0.0
-0.200527945595 -0.357226305578 0.0
0.0415087940014 0.179871847186 0.0
-0.0020504722436 0.204231933928 0.0
0.0478301842954 0.172274750413 0.0
-0.0735952149406 -0.0326667344698 0.0
-0.100437944471 -0.0471241325354 0.0
-0.0974644789904 -0.0318254133419 0.0
-0.0526218524678 0.0829257794422 0.0
-0.0769961918905 0.0924098127279 0.0
-0.0672874024417 0.109192312267 0.0
-0.177864483902 0.093746058751 0.0
-0.16602565666 0.0849709920635 0.0
0.651888639319 0.0195855316705 0.0
0.678403208713 0.0155842882305 0.0
-0.00624732339686 0.0605905223797 0.0
-0.00631685374552 0.0746509243444 0.0
-0.0233483906858 -0.149533437031 0.0
-0.0192951878823 -0.110861396015 0.0
-0.0363977980646 -0.00172555736198 0.0
-0.0398408866673 -0.000373862822362 0.0
-0.0212147563662 -0.171017287501 0.0
-0.0720906057622 -0.281612496184 0.0
-0.0264889027368 -0.00221878566136 0.0
-0.0508830477604 -0.00634679840846 0.0
0.666460624727 0.0184867521486 0.0
0.398785043579 0.0578135086488 0.0
-0.00442295179305 0.0417657154284 0.0
-0.0173372589938 0.0826170418104 0.0
-0.234702529463 -0.151376819566 0.0
-0.165563060349 0.0231371308253 0.0
-0.173229534248 -0.220379349114 0.0
-0.116073957999 -0.24219774021 0.0
-0.0365208780377 0.21722261248 0.0
-0.0347405116906 0.231220848612 0.0
-0.127118292802 -0.0630656107901 0.0
-0.0959430425523 -0.0635614836049 0.0
-0.0997311452568 0.0916159104818 0.0
-0.0813231298268 0.0718575697369 0.0
-0.0857697707759 0.193540254727 0.0
-0.10362328782 0.202439412337 0.0
-0.143199546411 0.101534301551 0.0
-0.15255489447 0.071704779623 0.0
-0.189071760499 0.095580291524 0.0
-0.163592401811 0.126115793906 0.0
-0.197951506071 0.0788399263121 0.0
-0.19614227318 0.0927594586092 0.0
-0.225982059764 0.0202273706232 0.0
-0.222214497349 0.0275007504397 0.0
-0.131438328301 -0.345268768894 0.0
-0.116114250785 -0.386317487258 0.0
-0.0713902224143 -0.0122831012828 0.0
-0.0542116195179 -0.0125847957397 0.0
0.224211694015 0.101090581925 0.0
0.244528393572 0.0957074464016 0.0
-0.0350378878322 0.107966893125 0.0
-0.0253061043895 0.0796854032045 0.0
0.725692544224 -0.016372109803 0.0
0.681686021657 -0.0275907184423 0.0
-0.00741503260252 0.118861140285 0.0
-0.0117096846832 0.139123633415 0.0
-0.00235281123714 -0.0125776283074 0.0
-0.00194111907482 -0.00784494899859 0.0
-0.0198476879356 0.00287069657772 0.0
-0.0153614862543 0.00314137739662 0.0
-0.0420759081541 -0.37786680861 0.0
-0.0362161693671 -0.306908868176 0.0
-0.0119160065252 -0.00360466949305 0.0
-0.0178864147056 -0.0036844322199 0.0
0.453171507096 0.0450595890958 0.0
0.529949949486 0.0340777911101 0.0
-0.00392723436287 0.0178067080281 0.0
-0.00442795964926 0.0255487133808 0.0
0.469925202198 0.0342088448367 0.0
0.734742011885 0.00736660691617 0.0
-0.0189079375021 0.13118175828 0.0
-0.00456120539562 0.0783787400251 0.0
-0.0489973505908 -0.15451472148 0.0
-0.0119886066763 -0.0684715582892 0.0
-0.0609985123249 0.00106634186175 0.0
-0.0345606947344 0.00101603666207 0.0
-0.142646191649 -0.454542611614 0.0
-0.134163510385 -0.44727481825 0.0
0.126479530693 0.135855206154 0.0
0.0273531707983 0.184442001071 0.0
-0.0519281868036 -0.0193352750868 0.0
-0.0489450664951 -0.0275185887659 0.0
-0.0309588685261 0.0688305213337 0.0
-0.037667592471 0.0578366422691 0.0
0.155344593478 0.0801900048168 0.0
0.280673968677 0.0647317936089 0.0
0.185747254327 0.0961814374408 0.0
-0.0608427314771 0.188434090367 0.0
-0.0390195573787 0.164478992359 0.0
-0.052238461066 0.159290874236 0.0
-0.146107741233 -0.224212170976 0.0
-0.100391294819 -0.214102839036 0.0
-0.145641237759 -0.268627650018 0.0
-0.106105126388 0.00538272920745 0.0
-0.0841457690757 0.00138378736434 0.0
-0.096381692292 -0.00415233094384 0.0
-0.153852289011 -0.0155790441642 0.0
-0.0971225613188 -0.0374676395597 0.0
-0.0833034995882 0.0275357401391 0.0
-0.0853441129017 0.222733861728 0.0
-0.104772178488 0.207504685304 0.0
-0.210377331332 -0.0945526696375 0.0
-0.176385646207 -0.113109930047 0.0
-0.206736290689 -0.135993516545 0.0
-0.133825879875 0.0609640262775 0.0
-0.15018842496 0.0443976324535 0.0
0.234072920461 -0.156471970373 0.0
0.230242351034 -0.105564010842 0.0
0.0805796557713 -0.212437451005 0.0
-0.0503814970518 0.252360970797 0.0
-0.0429275394707 0.248422763612 0.0
-0.0501356449737 0.254198021027 0.0
-0.0199958465089 -0.0309421044533 0.0
-0.0352995727132 -0.0541803100224 0.0
-0.039515832259 -0.0451324264613 0.0
-0.0358786245171 0.0193333166456 0.0
-0.0530627272777 0.0235130118367 0.0
-0.0491970144004 0.03374865256 0.0
-0.137960768959 -0.123542578891 0.0
-0.065180100427 0.225094775334 0.0
-0.151223657042 -0.0856255733899 0.0
-0.118254628154 0.0784158299563 0.0
-0.188348495182 0.0124099961621 0.0
-0.208433984981 -0.0502291950476 0.0
-0.222706957394 -0.119547111597 0.0
-0.2120320299 -0.0569683074679 0.0
-0.18724213025 -0.048552957497 0.0
0.773226954884 0.00131575394684 0.0
-0.00331983964526 0.0793548799322 0.0
-0.00751707295127 -0.0402901574737 0.0
-0.0282845881352 0.00169216866278 0.0
0.104821626489 0.127690613214 0.0
0.0601615863831 0.155478528051 0.0
-0.189223032952 -0.299417178202 0.0
-0.209855842647 -0.321775089528 0.0
-0.0674771050443 0.151627880511 0.0
-0.0745332582414 0.133200764853 0.0
-0.108809557824 -0.0120089113924 0.0
-0.111284915861 -0.0235615100322 0.0
0.427601208672 -0.0924129492928 0.0
0.65088361274 -0.0369732155766 0.0
-0.0372536367776 0.222542285678 0.0
-0.0173162078371 0.154001495508 0.0
-0.00717675217067 -0.015856906702 0.0
-0.0011153947193 -0.00362549819641 0.0
-0.0226717683435 0.00886941060242 0.0
-0.00936950022406 0.00263488616577 0.0
-0.0410857191535 -0.416010558554 0.0
-0.0895015875727 -0.525875707352 0.0
-0.00584627911132 -0.00264736922153 0.0
-0.0164941285018 -0.0091066849278 0.0
0.415945536551 0.0518835866993 0.0
0.124162057274 0.129115461086 0.0
-0.00260272558653 0.0103209040424 0.0
-0.0115497754883 0.0254071939973 0.0
-0.0315271785462 0.22284162849 0.0
0.351642267209 -0.0431380092509 0.0
-0.0551818123627 0.0157759325907 0.0
-0.032454547657 -0.0640405093084 0.0
-0.0567771618696 -0.347057178919 0.0
-0.0909411411312 -0.467879526547 0.0
-0.0326748900714 0.230035346052 0.0
0.00189852112293 0.193489291576 0.0
-0.0446600061107 -0.0365314468395 0.0
-0.0291341377761 -0.0203560954844 0.0
-0.044185311889 0.0457763425206 0.0
-0.0259667794072 0.0374952071811 0.0
-0.000660174892832 -0.00165726220028 0.0
0.562539292125 -0.0627588976773 0.0
-0.00550413966696 0.00232761608114 0.0
-0.0326783161425 0.194766100315 0.0
-0.0482007060266 -0.477189113412 0.0
-0.00258727695991 -0.00197005161724 0.0
0.308227539823 0.07783153696 0.0
-0.00194188942443 0.0057919500193 0.0
0.352544198397 0.0370719734475 0.0
-0.0312287163726 0.174790115428 0.0
-0.0684698380161 -0.155331363533 0.0
-0.0748915637261 0.00593687720986 0.0
-0.00348471660432 -0.00593208589454 0.0
-0.0104992326956 0.00709948582054 0.0
0.260110980229 -0.202232510831 0.0
-0.0737325269691 0.260540472996 0.0
-0.0425494416618 -0.5052640082 0.0
-0.00549822023608 -0.00532880292294 0.0
-0.00703763820066 0.192394808271 0.0
-0.00731538851047 0.0109769732927 0.0
-0.0315196905663 -0.238176474474 0.0
-0.0419456373812 0.244567091449 0.0
-0.065999028086 -0.0575892863185 0.0
-0.0647815761372 0.051623943058 0.0
-0.0234884772426 0.0741694200081 0.0
-0.0972917566875 0.0756416681467 0.0
-0.101817749336 0.2000790594 0.0
-0.127087794337 0.18305688849 0.0
-0.20816511344 -0.179507118102 0.0
-0.144734196297 0.0217549896655 0.0
0.180322949891 0.10960710249 0.0
-0.0478182318472 0.134685604639 0.0
0.117200875904 0.137745942406 0.0
-0.0544111834633 0.119905057605 0.0
-0.152546181793 -0.31582229501 0.0
-0.0883465264216 -0.0110071286245 0.0
-0.180479885051 -0.359224701738 0.0
-0.0897617163397 -0.0197497026606 0.0
0.780635589833 -0.00673356620655 0.0
0.552234185048 -0.0239612620613 0.0
-0.00426215844732 0.091896334742 0.0
-0.0163785053651 0.17336725536 0.0
0.310259900783 0.0761322912397 0.0
0.453664003214 -0.0104042799437 0.0
-0.0221017355815 0.188817817082 0.0
-0.0859669144069 -0.399127269267 0.0
-0.0145190308005 0.0521440734006 0.0
-0.0354962730681 -0.00914455498789 0.0
0.632146466331 0.0218770910316 0.0
-0.0246435419151 -0.218014019375 0.0
-0.00387411754252 0.0312112941214 0.0
-0.0208054962034 -0.00278843987302 0.0
-0.0024130739971 -0.015034121632 0.0
-0.0126272777412 -0.0386284698206 0.0
-0.020431069578 0.0020144030921 0.0
-0.0377900193731 0.00717942055789 0.0
-0.0289692578417 -0.0719303590681 0.0
-0.0538996411818 0.00970966439702 0.0
0.060845607248 0.0780506525323 0.0
-0.0809760707795 0.201929390024 0.0
-0.178988670857 -0.204644567151 0.0
-0.125701269709 0.0138614264193 0.0
-0.115350472742 0.113015715554 0.0
-0.1555663816 0.0690025305088 0.0
-0.147358877152 0.154985329279 0.0
0.225144613347 -0.200099014222 0.0
-0.0631782870976 0.255738716273 0.0
-0.0528989783156 -0.475485561308 0.0
-0.0104447648227 -0.0161865107881 0.0
-0.0197151266089 0.201565140287 0.0
-0.0220315677085 0.0140327483293 0.0
-0.0150218550123 -0.0126754925605 0.0
-0.0163314032575 0.0225959676211 0.0
0.247146264668 0.0265651399572 0.0
0.132856887586 0.0467579433148 0.0
-0.0439512112172 0.209366775811 0.0
-0.0627686444434 0.214066953253 0.0
-0.132896730315 -0.178601730402 0.0
-0.0860044251354 -0.147816472259 0.0
-0.0864291594519 0.0141811951222 0.0
-0.107323542019 0.0176203244501 0.0
-0.0551157038992 0.205031377594 0.0
-0.203613432761 -0.173124228346 0.0
-0.120525989895 0.103501408463 0.0
-0.157695203342 -0.0591845212902 0.0
0.0676217260121 -0.348543224345 0.0
-0.0716414805885 0.247330891612 0.0
-0.00908064816702 -0.0108833626757 0.0
-0.0151802130974 0.0146409801942 0.0
-0.197851634133 0.0484170996559 0.0
0.587578378778 0.00204941552187 0.0
0.796238687613 -0.00258542857145 0.0
-0.0121026064891 0.142370702104 0.0
-0.00300957708458 0.0794688789854 0.0
0.399150860552 0.0125898013342 0.0
-0.0264571405989 0.18539519909 0.0
-0.0196793502756 -0.0660589941098 0.0
-0.00419530427094 -0.0220650090299 0.0
-0.0452238885575 0.00461827204959 0.0
-0.022665885533 0.00175852860708 0.0