# vtk DataFile Version 2.0
2D Simulation Python
ASCII
DATASET UNSTRUCTURED_GRID
FIELD FieldData 1
NODES 1 2 int
7905 15488

POINTS 7905 double
0.0 0.0 0.0
1.0 0.0 0.0
1.0 1.0 0.0
0.0 1.0 0.0
0.01249999999997639 0.0 0.0
0.02499999999995297 0.0 0.0
0.03749999999992721 0.0 0.0
0.04999999999989927 0.0 0.0
0.0624999999998716 0.0 0.0
0.07499999999985263 0.0 0.0
0.08749999999983366 0.0 0.0
0.09999999999981467 0.0 0.0
0.1124999999997956 0.0 0.0
0.1249999999997765 0.0 0.0
0.1374999999997401 0.0 0.0
0.1499999999997036 0.0 0.0
0.1624999999996672 0.0 0.0
0.1749999999996308 0.0 0.0
0.1874999999995943 0.0 0.0
0.1999999999995579 0.0 0.0
0.2124999999995214 0.0 0.0
0.224999999999485 0.0 0.0
0.2374999999994485 0.0 0.0
0.2499999999994121 0.0 0.0
0.2624999999993757 0.0 0.0
0.2749999999993393 0.0 0.0
0.2874999999993028 0.0 0.0
0.2999999999992664 0.0 0.0
0.3124999999992299 0.0 0.0
0.3249999999991935 0.0 0.0
0.3374999999991571 0.0 0.0
0.3499999999991207 0.0 0.0
0.3624999999990842 0.0 0.0
0.3749999999990478 0.0 0.0
0.3874999999990113 0.0 0.0
0.3999999999989749 0.0 0.0
0.4124999999989398 0.0 0.0
0.4249999999989048 0.0 0.0
0.4374999999988697 0.0 0.0
0.4499999999988346 0.0 0.0
0.4624999999987995 0.0 0.0
0.4749999999987644 0.0 0.0
0.4874999999987293 0.0 0.0
0.4999999999986943 0.0 0.0
0.5124999999987259 0.0 0.0
0.5249999999987575 0.0 0.0
0.5374999999987891 0.0 0.0
0.5499999999988205 0.0 0.0
0.5624999999988521 0.0 0.0
0.5749999999988837 0.0 0.0
0.5874999999989152 0.0 0.0
0.5999999999989468 0.0 0.0
0.6124999999989797 0.0 0.0
0.6249999999990127 0.0 0.0
0.6374999999990456 0.0 0.0
0.6499999999990784 0.0 0.0
0.6624999999991114 0.0 0.0
0.6749999999991443 0.0 0.0
0.6874999999991771 0.0 0.0
0.69999999999921 0.0 0.0
0.712499999999243 0.0 0.0
0.7249999999992759 0.0 0.0
0.7374999999993088 0.0 0.0
0.7499999999993416 0.0 0.0
0.7624999999993746 0.0 0.0
0.7749999999994075 0.0 0.0
0.7874999999994404 0.0 0.0
0.7999999999994734 0.0 0.0
0.8124999999995063 0.0 0.0
0.8249999999995392 0.0 0.0
0.8374999999995721 0.0 0.0
0.8499999999996051 0.0 0.0
0.862499999999638 0.0 0.0
0.8749999999996709 0.0 0.0
0.8874999999997039 0.0 0.0
0.8999999999997368 0.0 0.0
0.9124999999997697 0.0 0.0
0.9249999999998026 0.0 0.0
0.9374999999998355 0.0 0.0
0.9499999999998684 0.0 0.0
0.9624999999999013 0.0 0.0
0.9749999999999343 0.0 0.0
0.9874999999999672 0.0 0.0
1.0 0.01249999999997639 0.0
1.0 0.02499999999995297 0.0
1.0 0.03749999999992721 0.0
1.0 0.04999999999989927 0.0
1.0 0.0624999999998716 0.0
1.0 0.07499999999985263 0.0
1.0 0.08749999999983366 0.0
1.0 0.09999999999981467 0.0
1.0 0.1124999999997956 0.0
1.0 0.1249999999997765 0.0
1.0 0.1374999999997401 0.0
1.0 0.1499999999997036 0.0
1.0 0.1624999999996672 0.0
1.0 0.1749999999996308 0.0
1.0 0.1874999999995943 0.0
1.0 0.1999999999995579 0.0
1.0 0.2124999999995214 0.0
1.0 0.224999999999485 0.0
1.0 0.2374999999994485 0.0
1.0 0.2499999999994121 0.0
1.0 0.2624999999993757 0.0
1.0 0.2749999999993393 0.0
1.0 0.2874999999993028 0.0
1.0 0.2999999999992664 0.0
1.0 0.3124999999992299 0.0
1.0 0.3249999999991935 0.0
1.0 0.3374999999991571 0.0
1.0 0.3499999999991207 0.0
1.0 0.3624999999990842 0.0
1.0 0.3749999999990478 0.0
1.0 0.3874999999990113 0.0
1.0 0.3999999999989749 0.0
1.0 0.4124999999989398 0.0
1.0 0.4249999999989048 0.0
1.0 0.4374999999988697 0.0
1.0 0.4499999999988346 0.0
1.0 0.4624999999987995 0.0
1.0 0.4749999999987644 0.0
1.0 0.4874999999987293 0.0
1.0 0.4999999999986943 0.0
1.0 0.5124999999987259 0.0
1.0 0.5249999999987575 0.0
1.0 0.5374999999987891 0.0
1.0 0.5499999999988205 0.0
1.0 0.5624999999988521 0.0
1.0 0.5749999999988837 0.0
1.0 0.5874999999989152 0.0
1.0 0.5999999999989468 0.0
1.0 0.6124999999989797 0.0
1.0 0.6249999999990127 0.0
1.0 0.6374999999990456 0.0
1.0 0.6499999999990784 0.0
1.0 0.6624999999991114 0.0
1.0 0.6749999999991443 0.0
1.0 0.6874999999991771 0.0
1.0 0.69999999999921 0.0
1.0 0.712499999999243 0.0
1.0 0.7249999999992759 0.0
1.0 0.7374999999993088 0.0
1.0 0.7499999999993416 0.0
1.0 0.7624999999993746 0.0
1.0 0.7749999999994075 0.0
1.0 0.7874999999994404 0.0
1.0 0.7999999999994734 0.0
1.0 0.8124999999995063 0.0
1.0 0.8249999999995392 0.0
1.0 0.8374999999995721 0.0
1.0 0.8499999999996051 0.0
1.0 0.862499999999638 0.0
1.0 0.8749999999996709 0.0
1.0 0.8874999999997039 0.0
1.0 0.8999999999997368 0.0
1.0 0.9124999999997697 0.0
1.0 0.9249999999998026 0.0
1.0 0.9374999999998355 0.0
1.0 0.9499999999998684 0.0
1.0 0.9624999999999013 0.0
1.0 0.9749999999999343 0.0
1.0 0.9874999999999672 0.0
0.9874999999999439 1.0 0.0
0.9749999999998877 1.0 0.0
0.9624999999998541 1.0 0.0
0.9499999999998356 1.0 0.0
0.9374999999997805 1.0 0.0
0.9249999999996992 1.0 0.0
0.9124999999996414 1.0 0.0
0.8999999999995836 1.0 0.0
0.8874999999996454 1.0 0.0
0.8749999999997078 1.0 0.0
0.8624999999997771 1.0 0.0
0.8499999999998515 1.0 0.0
0.837499999999895 1.0 0.0
0.8249999999999216 1.0 0.0
0.8124999999999571 1.0 0.0
0.7999999999999998 1.0 0.0
0.7875000000000937 1.0 0.0
0.77500000000021 1.0 0.0
0.7625000000002968 1.0 0.0
0.7500000000003858 1.0 0.0
0.7375000000004739 1.0 0.0
0.7250000000005448 1.0 0.0
0.7125000000005861 1.0 0.0
0.7000000000006934 1.0 0.0
0.6875000000008109 1.0 0.0
0.6750000000009306 1.0 0.0
0.6625000000010091 1.0 0.0
0.6500000000010593 1.0 0.0
0.6375000000011386 1.0 0.0
0.6250000000012101 1.0 0.0
0.612500000001312 1.0 0.0
0.6000000000013869 1.0 0.0
0.5875000000014601 1.0 0.0
0.5750000000015277 1.0 0.0
0.5625000000016089 1.0 0.0
0.5500000000016854 1.0 0.0
0.5375000000017889 1.0 0.0
0.5250000000018821 1.0 0.0
0.5125000000019756 1.0 0.0
0.5000000000020587 1.0 0.0
0.4875000000020093 1.0 0.0
0.4750000000019601 1.0 0.0
0.4625000000019108 1.0 0.0
0.4500000000018616 1.0 0.0
0.4375000000018123 1.0 0.0
0.425000000001763 1.0 0.0
0.4125000000017136 1.0 0.0
0.4000000000016644 1.0 0.0
0.3875000000016123 1.0 0.0
0.3750000000015603 1.0 0.0
0.3625000000015083 1.0 0.0
0.3500000000014563 1.0 0.0
0.3375000000014042 1.0 0.0
0.3250000000013522 1.0 0.0
0.3125000000013003 1.0 0.0
0.3000000000012483 1.0 0.0
0.2875000000011962 1.0 0.0
0.2750000000011442 1.0 0.0
0.2625000000010922 1.0 0.0
0.2500000000010403 1.0 0.0
0.2375000000009883 1.0 0.0
0.2250000000009362 1.0 0.0
0.2125000000008842 1.0 0.0
0.2000000000008322 1.0 0.0
0.1875000000007802 1.0 0.0
0.1750000000007281 1.0 0.0
0.1625000000006761 1.0 0.0
0.1500000000006241 1.0 0.0
0.1375000000005721 1.0 0.0
0.12500000000052 1.0 0.0
0.112500000000468 1.0 0.0
0.100000000000416 1.0 0.0
0.08750000000036395 1.0 0.0
0.07500000000031193 1.0 0.0
0.06250000000026001 1.0 0.0
0.05000000000020799 1.0 0.0
0.03750000000015596 1.0 0.0
0.02500000000010394 1.0 0.0
0.01250000000005191 1.0 0.0
0.0 0.9874999999999439 0.0
0.0 0.9749999999998877 0.0
0.0 0.9624999999998541 0.0
0.0 0.9499999999998356 0.0
0.0 0.9374999999997805 0.0
0.0 0.9249999999996992 0.0
0.0 0.9124999999996414 0.0
0.0 0.8999999999995836 0.0
0.0 0.8874999999996454 0.0
0.0 0.8749999999997078 0.0
0.0 0.8624999999997771 0.0
0.0 0.8499999999998515 0.0
0.0 0.837499999999895 0.0
0.0 0.8249999999999216 0.0
0.0 0.8124999999999571 0.0
0.0 0.7999999999999998 0.0
0.0 0.7875000000000937 0.0
0.0 0.77500000000021 0.0
0.0 0.7625000000002968 0.0
0.0 0.7500000000003858 0.0
0.0 0.7375000000004739 0.0
0.0 0.7250000000005448 0.0
0.0 0.7125000000005861 0.0
0.0 0.7000000000006934 0.0
0.0 0.6875000000008109 0.0
0.0 0.6750000000009306 0.0
0.0 0.6625000000010091 0.0
0.0 0.6500000000010593 0.0
0.0 0.6375000000011386 0.0
0.0 0.6250000000012101 0.0
0.0 0.612500000001312 0.0
0.0 0.6000000000013869 0.0
0.0 0.5875000000014601 0.0
0.0 0.5750000000015277 0.0
0.0 0.5625000000016089 0.0
0.0 0.5500000000016854 0.0
0.0 0.5375000000017889 0.0
0.0 0.5250000000018821 0.0
0.0 0.5125000000019756 0.0
0.0 0.5000000000020587 0.0
0.0 0.4875000000020093 0.0
0.0 0.4750000000019601 0.0
0.0 0.4625000000019108 0.0
0.0 0.4500000000018616 0.0
0.0 0.4375000000018123 0.0
0.0 0.425000000001763 0.0
0.0 0.4125000000017136 0.0
0.0 0.4000000000016644 0.0
0.0 0.3875000000016123 0.0
0.0 0.3750000000015603 0.0
0.0 0.3625000000015083 0.0
0.0 0.3500000000014563 0.0
0.0 0.3375000000014042 0.0
0.0 0.3250000000013522 0.0
0.0 0.3125000000013003 0.0
0.0 0.3000000000012483 0.0
0.0 0.2875000000011962 0.0
0.0 0.2750000000011442 0.0
0.0 0.2625000000010922 0.0
0.0 0.2500000000010403 0.0
0.0 0.2375000000009883 0.0
0.0 0.2250000000009362 0.0
0.0 0.2125000000008842 0.0
0.0 0.2000000000008322 0.0
0.0 0.1875000000007802 0.0
0.0 0.1750000000007281 0.0
0.0 0.1625000000006761 0.0
0.0 0.1500000000006241 0.0
0.0 0.1375000000005721 0.0
0.0 0.12500000000052 0.0
0.0 0.112500000000468 0.0
0.0 0.100000000000416 0.0
0.0 0.08750000000036395 0.0
0.0 0.07500000000031193 0.0
0.0 0.06250000000026001 0.0
0.0 0.05000000000020799 0.0
0.0 0.03750000000015596 0.0
0.0 0.02500000000010394 0.0
0.0 0.01250000000005191 0.0
0.499547313951317 0.4984202829398231 0.0
0.7057142553715264 0.7049957919913439 0.0
0.2942617789825218 0.706558362574613 0.0
0.7052750732513358 0.29408370064617073 0.0
0.2941161372558304 0.29425664999463297 0.0
0.49473409022248005 0.7865288457870021 0.0
0.21400675843102512 0.49559804899934157 0.0
0.7879606576561358 0.5053778129282838 0.0
0.505369301426186 0.2119891966328729 0.0
0.8286074034533916 0.8287576993256224 0.0
0.17122528584787128 0.8286011816233976 0.0
0.8287577004551061 0.17139259539200086 0.0
0.17140751986106711 0.17123186221929698 0.0
0.6412438345717256 0.8516520873564006 0.0
0.14868333985619164 0.6419476520576217 0.0
0.36001439100831745 0.8471882363166383 0.0
0.8472916681795735 0.639858398754968 0.0
0.8516551147624887 0.3587551765143301 0.0
0.1529024464427883 0.36006180552290556 0.0
0.3587547979315107 0.148343271772372 0.0
0.6398585806283599 0.15270777331315408 0.0
0.5665851234669081 0.6415505082226679 0.0
0.3688065763014604 0.5781443560211958 0.0
0.6448511073779454 0.4469929790001165 0.0
0.43335085497228876 0.35323599965884955 0.0
0.42653529248703315 0.6555720715037009 0.0
0.6657620768186652 0.5502649260729648 0.0
0.3566111211511165 0.42874186251021185 0.0
0.5447859278293945 0.34262223816401394 0.0
0.4594948214297615 0.8920313032464312 0.0
[...]
POINT_DATA 7905
VECTORS vector double
0.0 0.0 0.0
0.0 0.0 0.0
0.0 0.0 0.0
0.0 0.0 0.0
0.0 0.0 0.0
0.0 0.0 0.0
0.0 0.0 0.0
0.0 0.0 0.0
0.0 0.0 0.0
0.0 0.0 0.0
0.0 0.0 0.0
0.0 0.0 0.0
0.0 0.0 0.0
0.0 0.0 0.0
0.0 0.0 0.0
0.0 0.0 0.0
0.0 0.0 0.0
0.0 0.0 0.0
0.0 0.0 0.0
0.0 0.0 0.0
0.0 0.0 0.0
0.0 0.0 0.0
0.0 0.0 0.0
0.0 0.0 0.0
0.0 0.0 0.0
0.0 0.0 0.0
0.0 0.0 0.0
0.0 0.0 0.0
0.0 0.0 0.0
0.0 0.0 0.0
0.0 0.0 0.0
0.0 0.0 0.0
0.0 0.0 0.0
0.0 0.0 0.0
0.0 0.0 0.0
0.0 0.0 0.0
0.0 0.0 0.0
0.0 0.0 0.0
0.0 0.0 0.0
0.0 0.0 0.0
0.0 0.0 0.0
0.0 0.0 0.0
0.0 0.0 0.0
0.0 0.0 0.0
0.0 0.0 0.0
0.0 0.0 0.0
0.0 0.0 0.0
0.0 0.0 0.0
0.0 0.0 0.0
0.0 0.0 0.0
0.0 0.0 0.0
0.0 0.0 0.0
0.0 0.0 0.0
0.0 0.0 0.0
0.0 0.0 0.0
0.0 0.0 0.0
0.0 0.0 0.0
0.0 0.0 0.0
0.0 0.0 0.0
0.0 0.0 0.0
0.0 0.0 0.0
0.0 0.0 0.0
0.0 0.0 0.0
0.0 0.0 0.0
0.0 0.0 0.0
0.0 0.0 0.0
0.0 0.0 0.0
0.0 0.0 0.0
0.0 0.0 0.0
0.0 0.0 0.0
0.0 0.0 0.0
0.0 0.0 0.0
0.0 0.0 0.0
0.0 0.0 0.0
0.0 0.0 0.0
0.0 0.0 0.0
0.0 0.0 0.0
0.0 0.0 0.0
0.0 0.0 0.0
0.0 0.0 0.0
0.0 0.0 0.0
0.0 0.0 0.0
0.0 0.0 0.0
0.0 0.0 0.0
0.0 0.0 0.0
0.0 0.0 0.0
0.0 0.0 0.0
0.0 0.0 0.0
0.0 0.0 0.0
0.0 0.0 0.0
0.0 0.0 0.0
0.0 0.0 0.0
0.0 0.0 0.0
0.0 0.0 0.0
0.0 0.0 0.0
0.0 0.0 0.0
0.0 0.0 0.0
0.0 0.0 0.0
0.0 0.0 0.0
0.0 0.0 0.0
0.0 0.0 0.0
0.0 0.0 0.0
0.0 0.0 0.0
0.0 0.0 0.0
0.0 0.0 0.0
0.0 0.0 0.0
0.0 0.0 0.0
0.0 0.0 0.0
0.0 0.0 0.0
0.0 0.0 0.0
0.0 0.0 0.0
0.0 0.0 0.0
0.0 0.0 0.0
0.0 0.0 0.0
0.0 0.0 0.0
0.0 0.0 0.0
0.0 0.0 0.0
0.0 0.0 0.0
0.0 0.0 0.0
0.0 0.0 0.0
0.0 0.0 0.0
0.0 0.0 0.0
0.0 0.0 0.0
0.0 0.0 0.0
0.0 0.0 0.0
0.0 0.0 0.0
0.0 0.0 0.0
0.0 0.0 0.0
0.0 0.0 0.0
0.0 0.0 0.0
0.0 0.0 0.0
0.0 0.0 0.0
0.0 0.0 0.0
0.0 0.0 0.0
0.0 0.0 0.0
0.0 0.0 0.0
0.0 0.0 0.0
0.0 0.0 0.0
0.0 0.0 0.0
0.0 0.0 0.0
0.0 0.0 0.0
0.0 0.0 0.0
0.0 0.0 0.0
0.0 0.0 0.0
0.0 0.0 0.0
0.0 0.0 0.0
0.0 0.0 0.0
0.0 0.0 0.0
0.0 0.0 0.0
0.0 0.0 0.0
0.0 0.0 0.0
0.0 0.0 0.0
0.0 0.0 0.0
0.0 0.0 0.0
0.0 0.0 0.0
0.0 0.0 0.0
0.0 0.0 0.0
0.0 0.0 0.0
0.0 0.0 0.0
0.0 0.0 0.0
0.0 0.0 0.0
0.0 0.0 0.0
1.0 0.0 0.0
1.0 0.0 0.0
1.0 0.0 0.0
1.0 0.0 0.0
1.0 0.0 0.0
1.0 0.0 0.0
1.0 0.0 0.0
1.0 0.0 0.0
1.0 0.0 0.0
1.0 0.0 0.0
1.0 0.0 0.0
1.0 0.0 0.0
1.0 0.0 0.0
1.0 0.0 0.0
1.0 0.0 0.0
1.0 0.0 0.0
1.0 0.0 0.0
1.0 0.0 0.0
1.0 0.0 0.0
1.0 0.0 0.0
1.0 0.0 0.0
1.0 0.0 0.0
1.0 0.0 0.0
1.0 0.0 0.0
1.0 0.0 0.0
1.0 0.0 0.0
1.0 0.0 0.0
1.0 0.0 0.0
1.0 0.0 0.0
1.0 0.0 0.0
1.0 0.0 0.0
1.0 0.0 0.0
1.0 0.0 0.0
1.0 0.0 0.0
1.0 0.0 0.0
1.0 0.0 0.0
1.0 0.0 0.0
1.0 0.0 0.0
1.0 0.0 0.0
1.0 0.0 0.0
1.0 0.0 0.0
1.0 0.0 0.0
1.0 0.0 0.0
1.0 0.0 0.0
1.0 0.0 0.0
1.0 0.0 0.0
1.0 0.0 0.0
1.0 0.0 0.0
1.0 0.0 0.0
1.0 0.0 0.0
1.0 0.0 0.0
1.0 0.0 0.0
1.0 0.0 0.0
1.0 0.0 0.0
1.0 0.0 0.0
1.0 0.0 0.0
1.0 0.0 0.0
1.0 0.0 0.0
1.0 0.0 0.0
1.0 0.0 0.0
1.0 0.0 0.0
1.0 0.0 0.0
1.0 0.0 0.0
1.0 0.0 0.0
1.0 0.0 0.0
1.0 0.0 0.0
1.0 0.0 0.0
1.0 0.0 0.0
1.0 0.0 0.0
1.0 0.0 0.0
1.0 0.0 0.0
1.0 0.0 0.0
1.0 0.0 0.0
1.0 0.0 0.0
1.0 0.0 0.0
1.0 0.0 0.0
1.0 0.0 0.0
1.0 0.0 0.0
1.0 0.0 0.0
0.0 0.0 0.0
0.0 0.0 0.0
0.0 0.0 0.0
0.0 0.0 0.0
0.0 0.0 0.0
0.0 0.0 0.0
0.0 0.0 0.0
0.0 0.0 0.0
0.0 0.0 0.0
0.0 0.0 0.0
0.0 0.0 0.0
0.0 0.0 0.0
0.0 0.0 0.0
0.0 0.0 0.0
0.0 0.0 0.0
0.0 0.0 0.0
0.0 0.0 0.0
0.0 0.0 0.0
0.0 0.0 0.0
0.0 0.0 0.0
0.0 0.0 0.0
0.0 0.0 0.0
0.0 0.0 0.0
0.0 0.0 0.0
0.0 0.0 0.0
0.0 0.0 0.0
0.0 0.0 0.0
0.0 0.0 0.0
0.0 0.0 0.0
0.0 0.0 0.0
0.0 0.0 0.0
0.0 0.0 0.0
0.0 0.0 0.0
0.0 0.0 0.0
0.0 0.0 0.0
0.0 0.0 0.0
0.0 0.0 0.0
0.0 0.0 0.0
0.0 0.0 0.0
0.0 0.0 0.0
0.0 0.0 0.0
0.0 0.0 0.0
0.0 0.0 0.0
0.0 0.0 0.0
0.0 0.0 0.0
0.0 0.0 0.0
0.0 0.0 0.0
0.0 0.0 0.0
0.0 0.0 0.0
0.0 0.0 0.0
0.0 0.0 0.0
0.0 0.0 0.0
0.0 0.0 0.0
0.0 0.0 0.0
0.0 0.0 0.0
0.0 0.0 0.0
0.0 0.0 0.0
0.0 0.0 0.0
0.0 0.0 0.0
0.0 0.0 0.0
0.0 0.0 0.0
0.0 0.0 0.0
0.0 0.0 0.0
0.0 0.0 0.0
0.0 0.0 0.0
0.0 0.0 0.0
0.0 0.0 0.0
0.0 0.0 0.0
0.0 0.0 0.0
0.0 0.0 0.0
0.0 0.0 0.0
0.0 0.0 0.0
0.0 0.0 0.0
0.0 0.0 0.0
0.0 0.0 0.0
0.0 0.0 0.0
0.0 0.0 0.0
0.0 0.0 0.0
0.0 0.0 0.0
-0.211663092195 0.0579674977268 0.0
-0.113162352842 -0.156891401425 0.0
-0.0606974031927 0.230803864845 0.0
-0.114239187304 -0.0777095527848 0.0
-0.0931281505144 0.0673628656685 0.0
0.0739583414077 0.113772536425 0.0
-0.0748812599037 0.167929943194 0.0
-0.186982913861 -0.24732018276 0.0
-0.111066148764 -0.00118784968435 0.0
0.0318198263155 -0.318138764805 0.0
-0.0633399391938 0.244074742007 0.0
-0.0201339073612 -0.0247926951818 0.0
-0.0266415871647 0.0264814166931 0.0
0.27463214852 -0.00715657475798 0.0
-0.0400411655392 0.213740738352 0.0
0.108337377572 0.140511290219 0.0
-0.170388744785 -0.400319411318 0.0
-0.0564406217519 -0.100898452204 0.0
-0.0413253735468 0.0908287964936 0.0
-0.0675426175846 0.0170753476252 0.0
-0.0672154275435 -0.0208662406941 0.0
-0.149102733255 0.0392558420159 0.0
-0.13211117773 0.179385628557 0.0
-0.230467326501 -0.100145016503 0.0
-0.162856657027 0.0493512239617 0.0
-0.100701141652 0.170085148877 0.0
-0.246168650712 -0.131672986451 0.0
-0.147160255464 0.113752273236 0.0
-0.18046211107 -0.0150522951436 0.0
0.306260004815 0.0648431737592 0.0
-0.0264776551969 0.114466126851 0.0
-0.0858808914611 -0.238710454675 0.0
-0.0478871544854 -0.00378551431141 0.0
0.434652219667 -0.0623941220122 0.0
-0.0305121890825 0.209112773183 0.0
-0.0127984733567 -0.031046166711 0.0
-0.0313700006395 0.0109438909605 0.0
-0.113112373273 -0.492550048316 0.0
0.150939886701 0.118513422973 0.0
-0.0252052375965 -0.0129442308685 0.0
-0.0155181085215 0.040289374193 0.0
-0.0464485030877 0.0178372177904 0.0
-0.0943324535119 0.21960258994 0.0
-0.155884801549 -0.144273663378 0.0
-0.108249673369 0.0345262658999 0.0
-0.0276021405667 0.184559944093 0.0
-0.232395795064 -0.263784708963 0.0
-0.0936109129547 0.116519375124 0.0
-0.120910171545 -0.0359713708724 0.0
0.0708941772 -0.373358131911 0.0
-0.0814360857258 0.257243463356 0.0
-0.00174190004542 -0.00462419475044 0.0
-0.00472025608079 0.00673235975945 0.0
0.530538380676 0.0169712846941 0.0
-0.0155478424743 0.132954694006 0.0
-0.0293578044528 -0.0986646335434 0.0
-0.0496693246554 0.00415697414459 0.0
-0.137794452295 -0.340561439224 0.0
-0.023680098918 0.214621773701 0.0
-0.0655132071513 -0.0431613748923 0.0
-0.0551509979201 0.0643330447261 0.0
0.0741784229684 -0.129975487919 0.0
-0.0552791146036 0.248195081595 0.0
-0.0598226891615 -0.0698067841766 0.0
-0.0641684116818 0.0366748943541 0.0
-0.171365552338 0.108914733567 0.0
-0.23296107168 -0.014730002003 0.0
-0.172392994018 0.123951835167 0.0
-0.222001671577 -0.0176771450868 0.0
-0.184278839973 -0.0809614649362 0.0
-0.0887453650962 0.208570873792 0.0
-0.176198206243 -0.0745478378694 0.0
-0.127969019074 0.0807988257762 0.0
0.628051675143 -0.00802958319074 0.0
-0.0112801330874 0.137925204107 0.0
-0.011356848434 -0.0433272430816 0.0
-0.036067042191 0.00504624281516 0.0
-0.0636941882879 -0.303677009255 0.0
-0.0363740886611 -0.00657492011784 0.0
0.42055475235 0.0541239566307 0.0
-0.0113855234192 0.05612544337 0.0
0.411325162589 -0.114102178551 0.0
-0.0484790319535 0.23109644278 0.0
-0.00356711327659 -0.00953716636594 0.0
-0.0136230256194 0.00717993201763 0.0
-0.0773404397957 -0.540694108744 0.0
-0.00878957729013 -0.00685759944798 0.0
0.106169928939 0.136242384502 0.0
-0.00659954126256 0.015673613452 0.0
-0.0654197205854 0.118768161051 0.0
-0.120103567579 0.166891830107 0.0
-0.231828493614 -0.185875076308 0.0
-0.146615762542 0.0054377287658 0.0
0.214853059745 0.0571041057164 0.0
-0.0486437804651 0.186055183254 0.0
-0.104687527472 -0.181731373156 0.0
-0.0856523724755 0.00880412525648 0.0
0.0947570985687 0.135025489545 0.0
-0.0569738007025 0.128858176502 0.0
-0.185517859256 -0.322223479118 0.0
-0.089558932296 -0.0154842844101 0.0
-0.19500365943 0.0579904750964 0.0
-0.19508084166 0.0174853601804 0.0
-0.2022017899 -0.0186462022908 0.0
-0.211144711506 0.020384910363 0.0
-3.49152876957e-05 -0.002341773363 0.0
0.000220715019044 -0.00187513672973 0.0
-0.0028105044039 0.00270844513655 0.0
-0.000350212860812 0.00214830730901 0.0
0.36643776915 -0.149427249017 0.0
0.0571651324447 -0.380049292306 0.0
-0.0684902858758 0.266156532311 0.0
-0.0623029621147 0.281444686094 0.0
-0.00117662870574 -0.00225515416719 0.0
-0.00104361174482 0.00396196582115 0.0
-0.0551711991057 -0.525665630513 0.0
0.114027969891 0.150763194814 0.0
-0.176475675013 0.0189670613685 0.0
-0.180405276046 0.0540786977809 0.0
-0.0865777353316 0.149426570165 0.0
-0.0340257806152 0.15451718729 0.0
-0.0645571686209 0.179051673096 0.0
-0.246329191693 -0.165286208039 0.0
-0.239302273665 -0.220241961376 0.0
-0.241001634891 -0.183135256957 0.0
-0.133805926788 0.140638397611 0.0
-0.109258140622 0.146024717078 0.0
-0.121858654398 0.12197496072 0.0
-0.161804329281 -0.00455495831786 0.0
-0.141395074653 -0.0149073864538 0.0
-0.155976301011 -0.0314681960004 0.0
-0.154628167262 0.152892927699 0.0
-0.177984203873 0.12094928954 0.0
-0.15241749287 0.150514173851 0.0
-0.130609554779 0.146711260224 0.0
-0.123424610256 0.175516553414 0.0
-0.243916939877 -0.0637942010339 0.0
-0.235444694761 -0.0173241193461 0.0
-0.228358572094 -0.0573507408049 0.0
-0.247153810407 -0.113868635065 0.0
-0.24278228288 -0.0785831319754 0.0
-9.51769729646e-06 0.119486642356 0.0
0.0222805455646 0.147772379657 0.0
-0.0970401758786 0.171973304238 0.0
-0.0867303274913 0.146871811538 0.0
-0.215476675687 -0.218910209334 0.0
-0.221703561777 -0.266613043221 0.0
-0.130460123599 0.0018345517029 0.0
-0.120720299764 -0.0144641051383 0.0
-0.0583326614158 0.225092041384 0.0
-0.0630840918759 0.23892540425 0.0
-0.0495911798649 0.237102794993 0.0
0.130999403184 0.00135274569264 0.0
0.0472573077883 -0.0565426439068 0.0
0.176916542034 -0.0530397349238 0.0
-0.0875599359598 0.025369684063 0.0
-0.0870757977707 0.0385317073435 0.0
-0.0679875950911 0.0263004224183 0.0
-0.0973620783482 -0.128701345002 0.0
-0.096910064402 -0.104202266052 0.0
-0.0601236215633 -0.0865826525938 0.0
-0.0591133896162 0.241482686719 0.0
-0.0731930788361 0.232556904559 0.0
-0.034919640361 -0.143892739527 0.0
-0.05812234565 -0.072746072507 0.0
-0.0804841713078 0.0519621726145 0.0
-0.103458476964 0.0538117054921 0.0
-0.0898703266547 -0.0793692154761 0.0
-0.128903879392 -0.102480999845 0.0
-0.179303711378 -0.401342245127 0.0
-0.190645686353 -0.310732774685 0.0
-0.205353675188 -0.352051448629 0.0
0.0292061200129 0.179056385266 0.0
-0.014547463986 0.202555330613 0.0
0.03481820884 0.172080837945 0.0
-0.0676525289565 -0.0314506229755 0.0
-0.093487274122 -0.0448222135929 0.0
-0.0904090988644 -0.0301862653946 0.0
-0.0491487994596 0.0787312438697 0.0
-0.0722938210411 0.0877862466642 0.0
-0.0637063753011 0.10362502174 0.0
-0.172536208328 0.0911807419889 0.0
-0.159385219794 0.0821915961586 0.0
0.642418638839 0.0212434536209 0.0
0.665556477035 0.0168231493743 0.0
-0.00615727120832 0.0575746418485 0.0
-0.00653665707862 0.0712167607785 0.0
-0.0233769036912 -0.147106304467 0.0
-0.0188841190783 -0.108965721395 0.0
-0.0331419971808 -0.00181337576654 0.0
-0.0350182218142 -0.000174453802261 0.0
-0.0214322506434 -0.168979161588 0.0
-0.0725436061919 -0.277350586451 0.0
-0.0286117490174 -0.00247932393906 0.0
-0.0465668130458 -0.00637139224772 0.0
0.667830324846 0.0198366315658 0.0
0.387555462338 0.0596822362324 0.0
-0.00421158197414 0.0397280911333 0.0
-0.0165866683337 0.0783334775946 0.0
-0.231705273788 -0.144860660945 0.0
-0.156600685195 0.0231226059531 0.0
-0.182456741017 -0.215977244622 0.0
-0.126300249894 -0.238987304791 0.0
-0.0471391114481 0.214637994302 0.0
-0.0445466803612 0.227854399783 0.0
-0.119865377879 -0.0597229544439 0.0
-0.0901292549865 -0.0606846420115 0.0
-0.0939176997878 0.0872223895438 0.0
-0.0757314542121 0.0684282213743 0.0
-0.093866153366 0.191603120233 0.0
-0.109274179033 0.1986093578 0.0
-0.136968214661 0.0974524482501 0.0
-0.144924193002 0.0691110503864 0.0
-0.185372661811 0.0937417866318 0.0
-0.160138280467 0.122285200817 0.0
-0.199821233798 0.0797618553737 0.0
-0.194874625847 0.0920484905513 0.0
-0.222722663875 0.0222039621018 0.0
-0.222658087565 0.0299546623331 0.0
-0.132391028007 -0.339662620147 0.0
-0.118037302005 -0.382140684315 0.0
-0.0656136188595 -0.0118123375186 0.0
-0.0499814499869 -0.0124684894437 0.0
0.211797886148 0.102543094044 0.0
0.234287570476 0.0968919502246 0.0
-0.0334713019439 0.102360392035 0.0
-0.0238220932118 0.0755612986668 0.0
0.728420865804 -0.0164465301494 0.0
0.683672716872 -0.0282707782067 0.0
-0.00760271995383 0.118064787258 0.0
-0.0122154854125 0.138576886131 0.0
-0.00304122392002 -0.0148403434624 0.0
-0.00214969422024 -0.00948156418568 0.0
-0.0207883131207 0.00313150035627 0.0
-0.0159788905325 0.00353909367102 0.0
-0.0437721494464 -0.378977676787 0.0
-0.0374769123491 -0.306313992585 0.0
-0.0128145567647 -0.00423420002315 0.0
-0.0183316423943 -0.00415885518937 0.0
0.453232343672 0.0458974599564 0.0
0.529079473819 0.0349696708563 0.0
-0.0035149525456 0.0175185080663 0.0
-0.00403309878141 0.0246339050421 0.0
0.455911018923 0.0360034600843 0.0
0.731519431035 0.00836839163038 0.0
-0.0193783296165 0.125310570846 0.0
-0.00510679540786 0.0756139765712 0.0
-0.0475977631133 -0.150828297011 0.0
-0.0109829598 -0.0683066328898 0.0
-0.0553746782138 0.00154665671092 0.0
-0.0341383346055 0.00142878546171 0.0
-0.147273280223 -0.451817095271 0.0
-0.141908486684 -0.446144229649 0.0
0.115722400134 0.13608363432 0.0
0.0169311027633 0.18349841436 0.0
-0.0472901135671 -0.0190766253656 0.0
-0.0443623952019 -0.027031007639 0.0
-0.0287837677541 0.0654228975241 0.0
-0.0346410290186 0.0552099014699 0.0
0.141574490124 0.0829854056619 0.0
0.266778032112 0.0670257216994 0.0
0.171810005068 0.0983890129724 0.0
-0.0609586246613 0.180419534699 0.0
-0.0390808148581 0.157066803582 0.0
-0.051332836181 0.151776353953 0.0
-0.143570787115 -0.217183545356 0.0
-0.0985525554877 -0.208177832498 0.0
-0.144390439832 -0.261716037984 0.0
-0.0980756033128 0.00574968298136 0.0
-0.0771873578805 0.00185877868634 0.0
-0.0888308974521 -0.00349238655655 0.0
-0.163323586637 -0.0112247872472 0.0
-0.109322422706 -0.033098910702 0.0
-0.0952996077162 0.0315863731925 0.0
-0.0912637669002 0.217559202421 0.0
-0.108551938752 0.201842924741 0.0
-0.204058673306 -0.0893286495901 0.0
-0.170035479868 -0.107548260159 0.0
-0.201621491125 -0.129700923404 0.0
-0.125831461691 0.0585672377605 0.0
-0.141489147894 0.0430885366895 0.0
0.226696725102 -0.156814402477 0.0
0.219906971095 -0.104526005114 0.0
0.0702075719058 -0.211780069591 0.0
-0.0543637674272 0.249560051944 0.0
-0.0475062426356 0.243771465037 0.0
-0.0567589036171 0.250626725568 0.0
-0.0187128262473 -0.0310085367433 0.0
-0.0334252886155 -0.0528448694345 0.0
-0.0367242598916 -0.0441236380796 0.0
-0.0326362633279 0.0192244849171 0.0
-0.0483142106015 0.0230417547105 0.0
-0.044744635044 0.032709667926 0.0
-0.148432562852 -0.11910263084 0.0
-0.073224826136 0.221169301949 0.0
-0.144191360552 -0.0811627444203 0.0
-0.111298635501 0.0749136558175 0.0
-0.195245776793 0.0162003934621 0.0
-0.214906090666 -0.0455914700952 0.0
-0.228411056358 -0.114278876412 0.0
-0.204965898374 -0.052951454768 0.0
-0.179052426075 -0.0450965338186 0.0
0.779482015636 0.00160885808615 0.0
-0.00398477969934 0.0784261588588 0.0
-0.00638222001882 -0.0431601342036 0.0
-0.0314055367974 0.00209912507876 0.0
0.0921181261902 0.129442042307 0.0
0.0476935178666 0.156270034675 0.0
-0.189041422941 -0.292305352807 0.0
-0.211970024968 -0.315343007909 0.0
-0.065388517206 0.144343084235 0.0
-0.0713808810638 0.126616052621 0.0
-0.101171137923 -0.0109563901229 0.0
-0.10376369668 -0.0220241169744 0.0
0.425185912459 -0.0935044133796 0.0
0.655904041238 -0.0379259369234 0.0
-0.0389966876931 0.221124841283 0.0
-0.0177657161661 0.154148957732 0.0
-0.0069143524034 -0.0169117671798 0.0
-0.00108748139819 -0.00519051576097 0.0
-0.0212264756596 0.00931765914982 0.0
-0.0108907274553 0.00304347499021 0.0
-0.0427436887601 -0.418938593796 0.0
-0.0935454695729 -0.528085568097 0.0
-0.00808669208369 -0.00324190676931 0.0
-0.0155894907983 -0.00989847337838 0.0
0.418134291679 0.0525164053144 0.0
0.12063581 0.129683674263 0.0
-0.00228763141164 0.0105790978428 0.0
-0.0104287725151 0.0249621025412 0.0
-0.0342942426693 0.217466211212 0.0
0.342648655445 -0.0419579449793 0.0
-0.0507537241927 0.0156901142373 0.0
-0.0312366376376 -0.0623095737467 0.0
-0.0665526758122 -0.346610632046 0.0
-0.098142553549 -0.468905265743 0.0
-0.0414029871758 0.227751126512 0.0
-0.00503950115433 0.192803220895 0.0
-0.0408786627302 -0.0357759071522 0.0
-0.0263762557428 -0.020592717889 0.0
-0.0403249170127 0.0439794431176 0.0
-0.023559496019 0.0362875011651 0.0
-0.000534077244478 -0.00319674655093 0.0
0.56578286952 -0.0638769310444 0.0
-0.00653594585856 0.00279646147814 0.0
-0.0330400962941 0.195378378905 0.0
-0.0502479522446 -0.482019486775 0.0
-0.00418903740993 -0.00260969153264 0.0
0.310046056668 0.0784697821385 0.0
-0.00161554240453 0.00647405746961 0.0
0.340821901363 0.0391448895112 0.0
-0.0320467404459 0.167641346755 0.0
-0.0663151856708 -0.150687275705 0.0
-0.0691025239225 0.00633842569938 0.0
-0.00309103657713 -0.00742538736529 0.0
-0.00964695702668 0.00782140066372 0.0
0.258269401152 -0.204621365236 0.0
-0.0749581363395 0.260846406497 0.0
-0.0461349611745 -0.509725845427 0.0
-0.0051679582894 -0.00648986778875 0.0
-0.00838285034538 0.193094059755 0.0
-0.00644096748091 0.0116624575372 0.0
-0.0424497170181 -0.236261476375 0.0
-0.0505578497962 0.240767762733 0.0
-0.0616660953803 -0.0555033251428 0.0
-0.0596081083634 0.0494074589422 0.0
-0.0371574764813 0.0776976917303 0.0
-0.108144989787 0.0789215681762 0.0
-0.103357203276 0.193192875423 0.0
-0.128340760035 0.177659956087 0.0
-0.204514752863 -0.172442525247 0.0
-0.135633730019 0.0215474533521 0.0
0.167979831774 0.111300297718 0.0
-0.0461248777502 0.127930206807 0.0
0.105219374072 0.138661935462 0.0
-0.0518437542941 0.113759235251 0.0
-0.152474132514 -0.309259310844 0.0
-0.0817768191446 -0.0102581701551 0.0
-0.182267700125 -0.353186534465 0.0
-0.0833275879824 -0.018699789247 0.0
0.790596695528 -0.00695635170819 0.0
0.548399216712 -0.0236477577318 0.0
-0.00427088893818 0.0925949648644 0.0
-0.0174166929157 0.169773854635 0.0
0.302531285602 0.0772796324659 0.0
0.447051422025 -0.00944760052348 0.0
-0.0236158072836 0.183289005362 0.0
-0.088143917671 -0.396820806 0.0
-0.0134785037146 0.0496740026421 0.0
-0.0327458976424 -0.00946431415454 0.0
0.634918126075 0.0229090254315 0.0
-0.0251651092223 -0.216479894918 0.0
-0.00360870887384 0.0298324069997 0.0
-0.0236745329395 -0.00307946784392 0.0
-0.00302147540187 -0.0199744534161 0.0
-0.012749818007 -0.0387283618498 0.0
-0.0240725594929 0.00219152611985 0.0
-0.0357060552169 0.00742974495034 0.0
-0.0279115755006 -0.0700577291757 0.0
-0.0504216630634 0.00994699895229 0.0
0.0462502026547 0.0813563053956 0.0
-0.0819352136833 0.194138864749 0.0
-0.175743808042 -0.197367187785 0.0
-0.116808257706 0.0139067787037 0.0
-0.124999664801 0.114990288724 0.0
-0.163609410438 0.0718192711461 0.0
-0.146123912326 0.15024734244 0.0
0.221184751094 -0.201736997543 0.0
-0.0658693044747 0.254617195524 0.0
-0.0582115480675 -0.478256123292 0.0
-0.00968222610609 -0.0171369712074 0.0
-0.0232798599534 0.201473368103 0.0
-0.0201866661665 0.0143460651774 0.0
-0.0139029041462 -0.0135038649874 0.0
-0.0147221636124 0.02247338664 0.0
0.234846060208 0.0291968637973 0.0
0.118846540066 0.0500301000569 0.0
-0.0457188269353 0.201719724728 0.0
-0.0646110627739 0.206123524569 0.0
-0.129386040368 -0.172080518892 0.0
-0.0831968810497 -0.142641180718 0.0
-0.0796566318513 0.0141631351008 0.0
-0.0991436949066 0.0174068493549 0.0
-0.0650162727603 0.203022434591 0.0
-0.211414079782 -0.168017925527 0.0
-0.114583985323 0.0988313951588 0.0
-0.149618327169 -0.0556149031457 0.0
0.0632274628168 -0.351386968273 0.0
-0.0741984068818 0.247176537554 0.0
-0.00823994775306 -0.0120151897471 0.0
-0.0136537160642 0.0150518375262 0.0
-0.202538351361 0.0509999625863 0.0
0.582897544888 0.00228123851261 0.0
0.80806557176 -0.00277770919085 0.0
-0.0130055291484 0.137994359638 0.0
-0.0033596308113 0.0808505213416 0.0
0.389586122659 0.014180575891 0.0
-0.0278353252938 0.178788057225 0.0
-0.018514719739 -0.0652742206927 0.0
-0.00383102693843 -0.0282982017616 0.0
-0.0430948903876 0.00518750783343 0.0
-0.0273934697241 0.00201279948802 0.0