# vtk DataFile Version 2.0
2D Simulation Python
ASCII
DATASET UNSTRUCTURED_GRID
FIELD FieldData 1
NODES 1 2 int
7905 15488

POINTS 7905 double
0.0 0.0 0.0
1.0 0.0 0.0
1.0 1.0 0.0
0.0 1.0 0.0
0.01249999999997639 0.0 0.0
0.02499999999995297 0.0 0.0
0.03749999999992721 0.0 0.0
0.04999999999989927 0.0 0.0
0.0624999999998716 0.0 0.0
0.07499999999985263 0.0 0.0
0.08749999999983366 0.0 0.0
0.09999999999981467 0.0 0.0
0.1124999999997956 0.0 0.0
0.1249999999997765 0.0 0.0
0.1374999999997401 0.0 0.0
0.1499999999997036 0.0 0.0
0.1624999999996672 0.0 0.0
0.1749999999996308 0.0 0.0
0.1874999999995943 0.0 0.0
0.1999999999995579 0.0 0.0
0.2124999999995214 0.0 0.0
0.224999999999485 0.0 0.0
0.2374999999994485 0.0 0.0
0.2499999999994121 0.0 0.0
0.2624999999993757 0.0 0.0
0.2749999999993393 0.0 0.0
0.2874999999993028 0.0 0.0
0.2999999999992664 0.0 0.0
0.3124999999992299 0.0 0.0
0.3249999999991935 0.0 0.0
0.3374999999991571 0.0 0.0
0.3499999999991207 0.0 0.0
0.3624999999990842 0.0 0.0
0.3749999999990478 0.0 0.0
0.3874999999990113 0.0 0.0
0.3999999999989749 0.0 0.0
0.4124999999989398 0.0 0.0
0.4249999999989048 0.0 0.0
0.4374999999988697 0.0 0.0
0.4499999999988346 0.0 0.0
0.4624999999987995 0.0 0.0
0.4749999999987644 0.0 0.0
0.4874999999987293 0.0 0.0
0.4999999999986943 0.0 0.0
0.5124999999987259 0.0 0.0
0.5249999999987575 0.0 0.0
0.5374999999987891 0.0 0.0
0.5499999999988205 0.0 0.0
0.5624999999988521 0.0 0.0
0.5749999999988837 0.0 0.0
0.5874999999989152 0.0 0.0
0.5999999999989468 0.0 0.0
0.6124999999989797 0.0 0.0
0.6249999999990127 0.0 0.0
0.6374999999990456 0.0 0.0
0.6499999999990784 0.0 0.0
0.6624999999991114 0.0 0.0
0.6749999999991443 0.0 0.0
0.6874999999991771 0.0 0.0
0.69999999999921 0.0 0.0
0.712499999999243 0.0 0.0
0.7249999999992759 0.0 0.0
0.7374999999993088 0.0 0.0
0.7499999999993416 0.0 0.0
0.7624999999993746 0.0 0.0
0.7749999999994075 0.0 0.0
0.7874999999994404 0.0 0.0
0.7999999999994734 0.0 0.0
0.8124999999995063 0.0 0.0
0.8249999999995392 0.0 0.0
0.8374999999995721 0.0 0.0
0.8499999999996051 0.0 0.0
0.862499999999638 0.0 0.0
0.8749999999996709 0.0 0.0
0.8874999999997039 0.0 0.0
0.8999999999997368 0.0 0.0
0.9124999999997697 0.0 0.0
0.9249999999998026 0.0 0.0
0.9374999999998355 0.0 0.0
0.9499999999998684 0.0 0.0
0.9624999999999013 0.0 0.0
0.9749999999999343 0.0 0.0
0.9874999999999672 0.0 0.0
1.0 0.01249999999997639 0.0
1.0 0.02499999999995297 0.0
1.0 0.03749999999992721 0.0
1.0 0.04999999999989927 0.0
1.0 0.0624999999998716 0.0
1.0 0.07499999999985263 0.0
1.0 0.08749999999983366 0.0
1.0 0.09999999999981467 0.0
1.0 0.1124999999997956 0.0
1.0 0.1249999999997765 0.0
1.0 0.1374999999997401 0.0
1.0 0.1499999999997036 0.0
1.0 0.1624999999996672 0.0
1.0 0.1749999999996308 0.0
1.0 0.1874999999995943 0.0
1.0 0.1999999999995579 0.0
1.0 0.2124999999995214 0.0
1.0 0.224999999999485 0.0
1.0 0.2374999999994485 0.0
1.0 0.2499999999994121 0.0
1.0 0.2624999999993757 0.0
1.0 0.2749999999993393 0.0
1.0 0.2874999999993028 0.0
1.0 0.2999999999992664 0.0
1.0 0.3124999999992299 0.0
1.0 0.3249999999991935 0.0
1.0 0.3374999999991571 0.0
1.0 0.3499999999991207 0.0
1.0 0.3624999999990842 0.0
1.0 0.3749999999990478 0.0
1.0 0.3874999999990113 0.0
1.0 0.3999999999989749 0.0
1.0 0.4124999999989398 0.0
1.0 0.4249999999989048 0.0
1.0 0.4374999999988697 0.0
1.0 0.4499999999988346 0.0
1.0 0.4624999999987995 0.0
1.0 0.4749999999987644 0.0
1.0 0.4874999999987293 0.0
1.0 0.4999999999986943 0.0
1.0 0.5124999999987259 0.0
1.0 0.5249999999987575 0.0
1.0 0.5374999999987891 0.0
1.0 0.5499999999988205 0.0
1.0 0.5624999999988521 0.0
1.0 0.5749999999988837 0.0
1.0 0.5874999999989152 0.0
1.0 0.5999999999989468 0.0
1.0 0.6124999999989797 0.0
1.0 0.6249999999990127 0.0
1.0 0.6374999999990456 0.0
1.0 0.6499999999990784 0.0
1.0 0.6624999999991114 0.0
1.0 0.6749999999991443 0.0
1.0 0.6874999999991771 0.0
1.0 0.69999999999921 0.0
1.0 0.712499999999243 0.0
1.0 0.7249999999992759 0.0
1.0 0.7374999999993088 0.0
1.0 0.7499999999993416 0.0
1.0 0.7624999999993746 0.0
1.0 0.7749999999994075 0.0
1.0 0.7874999999994404 0.0
1.0 0.7999999999994734 0.0
1.0 0.8124999999995063 0.0
1.0 0.8249999999995392 0.0
1.0 0.8374999999995721 0.0
1.0 0.8499999999996051 0.0
1.0 0.862499999999638 0.0
1.0 0.8749999999996709 0.0
1.0 0.8874999999997039 0.0
1.0 0.8999999999997368 0.0
1.0 0.9124999999997697 0.0
1.0 0.9249999999998026 0.0
1.0 0.9374999999998355 0.0
1.0 0.9499999999998684 0.0
1.0 0.9624999999999013 0.0
1.0 0.9749999999999343 0.0
1.0 0.9874999999999672 0.0
0.9874999999999439 1.0 0.0
0.9749999999998877 1.0 0.0
0.9624999999998541 1.0 0.0
0.9499999999998356 1.0 0.0
0.9374999999997805 1.0 0.0
0.9249999999996992 1.0 0.0
0.9124999999996414 1.0 0.0
0.8999999999995836 1.0 0.0
0.8874999999996454 1.0 0.0
0.8749999999997078 1.0 0.0
0.8624999999997771 1.0 0.0
0.8499999999998515 1.0 0.0
0.837499999999895 1.0 0.0
0.8249999999999216 1.0 0.0
0.8124999999999571 1.0 0.0
0.7999999999999998 1.0 0.0
0.7875000000000937 1.0 0.0
0.77500000000021 1.0 0.0
0.7625000000002968 1.0 0.0
0.7500000000003858 1.0 0.0
0.7375000000004739 1.0 0.0
0.7250000000005448 1.0 0.0
0.7125000000005861 1.0 0.0
0.7000000000006934 1.0 0.0
0.6875000000008109 1.0 0.0
0.6750000000009306 1.0 0.0
0.6625000000010091 1.0 0.0
0.6500000000010593 1.0 0.0
0.6375000000011386 1.0 0.0
0.6250000000012101 1.0 0.0
0.612500000001312 1.0 0.0
0.6000000000013869 1.0 0.0
0.5875000000014601 1.0 0.0
0.5750000000015277 1.0 0.0
0.5625000000016089 1.0 0.0
0.5500000000016854 1.0 0.0
0.5375000000017889 1.0 0.0
0.5250000000018821 1.0 0.0
0.5125000000019756 1.0 0.0
0.5000000000020587 1.0 0.0
0.4875000000020093 1.0 0.0
0.4750000000019601 1.0 0.0
0.4625000000019108 1.0 0.0
0.4500000000018616 1.0 0.0
0.4375000000018123 1.0 0.0
0.425000000001763 1.0 0.0
0.4125000000017136 1.0 0.0
0.4000000000016644 1.0 0.0
0.3875000000016123 1.0 0.0
0.3750000000015603 1.0 0.0
0.3625000000015083 1.0 0.0
0.3500000000014563 1.0 0.0
0.3375000000014042 1.0 0.0
0.3250000000013522 1.0 0.0
0.3125000000013003 1.0 0.0
0.3000000000012483 1.0 0.0
0.2875000000011962 1.0 0.0
0.2750000000011442 1.0 0.0
0.2625000000010922 1.0 0.0
0.2500000000010403 1.0 0.0
0.2375000000009883 1.0 0.0
0.2250000000009362 1.0 0.0
0.2125000000008842 1.0 0.0
0.2000000000008322 1.0 0.0
0.1875000000007802 1.0 0.0
0.1750000000007281 1.0 0.0
0.1625000000006761 1.0 0.0
0.1500000000006241 1.0 0.0
0.1375000000005721 1.0 0.0
0.12500000000052 1.0 0.0
0.112500000000468 1.0 0.0
0.100000000000416 1.0 0.0
0.08750000000036395 1.0 0.0
0.07500000000031193 1.0 0.0
0.06250000000026001 1.0 0.0
0.05000000000020799 1.0 0.0
0.03750000000015596 1.0 0.0
0.02500000000010394 1.0 0.0
0.01250000000005191 1.0 0.0
0.0 0.9874999999999439 0.0
0.0 0.9749999999998877 0.0
0.0 0.9624999999998541 0.0
0.0 0.9499999999998356 0.0
0.0 0.9374999999997805 0.0
0.0 0.9249999999996992 0.0
0.0 0.9124999999996414 0.0
0.0 0.8999999999995836 0.0
0.0 0.8874999999996454 0.0
0.0 0.8749999999997078 0.0
0.0 0.8624999999997771 0.0
0.0 0.8499999999998515 0.0
0.0 0.837499999999895 0.0
0.0 0.8249999999999216 0.0
0.0 0.8124999999999571 0.0
0.0 0.7999999999999998 0.0
0.0 0.7875000000000937 0.0
0.0 0.77500000000021 0.0
0.0 0.7625000000002968 0.0
0.0 0.7500000000003858 0.0
0.0 0.7375000000004739 0.0
0.0 0.7250000000005448 0.0
0.0 0.7125000000005861 0.0
0.0 0.7000000000006934 0.0
0.0 0.6875000000008109 0.0
0.0 0.6750000000009306 0.0
0.0 0.6625000000010091 0.0
0.0 0.6500000000010593 0.0
0.0 0.6375000000011386 0.0
0.0 0.6250000000012101 0.0
0.0 0.612500000001312 0.0
0.0 0.6000000000013869 0.0
0.0 0.5875000000014601 0.0
0.0 0.5750000000015277 0.0
0.0 0.5625000000016089 0.0
0.0 0.5500000000016854 0.0
0.0 0.5375000000017889 0.0
0.0 0.5250000000018821 0.0
0.0 0.5125000000019756 0.0
0.0 0.5000000000020587 0.0
0.0 0.4875000000020093 0.0
0.0 0.4750000000019601 0.0
0.0 0.4625000000019108 0.0
0.0 0.4500000000018616 0.0
0.0 0.4375000000018123 0.0
0.0 0.425000000001763 0.0
0.0 0.4125000000017136 0.0
0.0 0.4000000000016644 0.0
0.0 0.3875000000016123 0.0
0.0 0.3750000000015603 0.0
0.0 0.3625000000015083 0.0
0.0 0.3500000000014563 0.0
0.0 0.3375000000014042 0.0
0.0 0.3250000000013522 0.0
0.0 0.3125000000013003 0.0
0.0 0.3000000000012483 0.0
0.0 0.2875000000011962 0.0
0.0 0.2750000000011442 0.0
0.0 0.2625000000010922 0.0
0.0 0.2500000000010403 0.0
0.0 0.2375000000009883 0.0
0.0 0.2250000000009362 0.0
0.0 0.2125000000008842 0.0
0.0 0.2000000000008322 0.0
0.0 0.1875000000007802 0.0
0.0 0.1750000000007281 0.0
0.0 0.1625000000006761 0.0
0.0 0.1500000000006241 0.0
0.0 0.1375000000005721 0.0
0.0 0.12500000000052 0.0
0.0 0.112500000000468 0.0
0.0 0.100000000000416 0.0
0.0 0.08750000000036395 0.0
0.0 0.07500000000031193 0.0
0.0 0.06250000000026001 0.0
0.0 0.05000000000020799 0.0
0.0 0.03750000000015596 0.0
0.0 0.02500000000010394 0.0
0.0 0.01250000000005191 0.0
0.499547313951317 0.4984202829398231 0.0
0.7057142553715264 0.7049957919913439 0.0
0.2942617789825218 0.706558362574613 0.0
0.7052750732513358 0.29408370064617073 0.0
0.2941161372558304 0.29425664999463297 0.0
0.49473409022248005 0.7865288457870021 0.0
0.21400675843102512 0.49559804899934157 0.0
0.7879606576561358 0.5053778129282838 0.0
0.505369301426186 0.2119891966328729 0.0
0.8286074034533916 0.8287576993256224 0.0
0.17122528584787128 0.8286011816233976 0.0
0.8287577004551061 0.17139259539200086 0.0
0.17140751986106711 0.17123186221929698 0.0
0.6412438345717256 0.8516520873564006 0.0
0.14868333985619164 0.6419476520576217 0.0
0.36001439100831745 0.8471882363166383 0.0
0.8472916681795735 0.639858398754968 0.0
0.8516551147624887 0.3587551765143301 0.0
0.1529024464427883 0.36006180552290556 0.0
0.3587547979315107 0.148343271772372 0.0
0.6398585806283599 0.15270777331315408 0.0
0.5665851234669081 0.6415505082226679 0.0
0.3688065763014604 0.5781443560211958 0.0
0.6448511073779454 0.4469929790001165 0.0
0.43335085497228876 0.35323599965884955 0.0
0.42653529248703315 0.6555720715037009 0.0
0.6657620768186652 0.5502649260729648 0.0
0.3566111211511165 0.42874186251021185 0.0
0.5447859278293945 0.34262223816401394 0.0
0.4594948214297615 0.8920313032464312 0.0
[...]
POINT_DATA 7905
VECTORS vector double
0.0 0.0 0.0
0.0 0.0 0.0
0.0 0.0 0.0
0.0 0.0 0.0
0.0 0.0 0.0
0.0 0.0 0.0
0.0 0.0 0.0
0.0 0.0 0.0
0.0 0.0 0.0
0.0 0.0 0.0
0.0 0.0 0.0
0.0 0.0 0.0
0.0 0.0 0.0
0.0 0.0 0.0
0.0 0.0 0.0
0.0 0.0 0.0
0.0 0.0 0.0
0.0 0.0 0.0
0.0 0.0 0.0
0.0 0.0 0.0
0.0 0.0 0.0
0.0 0.0 0.0
0.0 0.0 0.0
0.0 0.0 0.0
0.0 0.0 0.0
0.0 0.0 0.0
0.0 0.0 0.0
0.0 0.0 0.0
0.0 0.0 0.0
0.0 0.0 0.0
0.0 0.0 0.0
0.0 0.0 0.0
0.0 0.0 0.0
0.0 0.0 0.0
0.0 0.0 0.0
0.0 0.0 0.0
0.0 0.0 0.0
0.0 0.0 0.0
0.0 0.0 0.0
0.0 0.0 0.0
0.0 0.0 0.0
0.0 0.0 0.0
0.0 0.0 0.0
0.0 0.0 0.0
0.0 0.0 0.0
0.0 0.0 0.0
0.0 0.0 0.0
0.0 0.0 0.0
0.0 0.0 0.0
0.0 0.0 0.0
0.0 0.0 0.0
0.0 0.0 0.0
0.0 0.0 0.0
0.0 0.0 0.0
0.0 0.0 0.0
0.0 0.0 0.0
0.0 0.0 0.0
0.0 0.0 0.0
0.0 0.0 0.0
0.0 0.0 0.0
0.0 0.0 0.0
0.0 0.0 0.0
0.0 0.0 0.0
0.0 0.0 0.0
0.0 0.0 0.0
0.0 0.0 0.0
0.0 0.0 0.0
0.0 0.0 0.0
0.0 0.0 0.0
0.0 0.0 0.0
0.0 0.0 0.0
0.0 0.0 0.0
0.0 0.0 0.0
0.0 0.0 0.0
0.0 0.0 0.0
0.0 0.0 0.0
0.0 0.0 0.0
0.0 0.0 0.0
0.0 0.0 0.0
0.0 0.0 0.0
0.0 0.0 0.0
0.0 0.0 0.0
0.0 0.0 0.0
0.0 0.0 0.0
0.0 0.0 0.0
0.0 0.0 0.0
0.0 0.0 0.0
0.0 0.0 0.0
0.0 0.0 0.0
0.0 0.0 0.0
0.0 0.0 0.0
0.0 0.0 0.0
0.0 0.0 0.0
0.0 0.0 0.0
0.0 0.0 0.0
0.0 0.0 0.0
0.0 0.0 0.0
0.0 0.0 0.0
0.0 0.0 0.0
0.0 0.0 0.0
0.0 0.0 0.0
0.0 0.0 0.0
0.0 0.0 0.0
0.0 0.0 0.0
0.0 0.0 0.0
0.0 0.0 0.0
0.0 0.0 0.0
0.0 0.0 0.0
0.0 0.0 0.0
0.0 0.0 0.0
0.0 0.0 0.0
0.0 0.0 0.0
0.0 0.0 0.0
0.0 0.0 0.0
0.0 0.0 0.0
0.0 0.0 0.0
0.0 0.0 0.0
0.0 0.0 0.0
0.0 0.0 0.0
0.0 0.0 0.0
0.0 0.0 0.0
0.0 0.0 0.0
0.0 0.0 0.0
0.0 0.0 0.0
0.0 0.0 0.0
0.0 0.0 0.0
0.0 0.0 0.0
0.0 0.0 0.0
0.0 0.0 0.0
0.0 0.0 0.0
0.0 0.0 0.0
0.0 0.0 0.0
0.0 0.0 0.0
0.0 0.0 0.0
0.0 0.0 0.0
0.0 0.0 0.0
0.0 0.0 0.0
0.0 0.0 0.0
0.0 0.0 0.0
0.0 0.0 0.0
0.0 0.0 0.0
0.0 0.0 0.0
0.0 0.0 0.0
0.0 0.0 0.0
0.0 0.0 0.0
0.0 0.0 0.0
0.0 0.0 0.0
0.0 0.0 0.0
0.0 0.0 0.0
0.0 0.0 0.0
0.0 0.0 0.0
0.0 0.0 0.0
0.0 0.0 0.0
0.0 0.0 0.0
0.0 0.0 0.0
0.0 0.0 0.0
0.0 0.0 0.0
0.0 0.0 0.0
0.0 0.0 0.0
0.0 0.0 0.0
0.0 0.0 0.0
0.0 0.0 0.0
1.0 0.0 0.0
1.0 0.0 0.0
1.0 0.0 0.0
1.0 0.0 0.0
1.0 0.0 0.0
1.0 0.0 0.0
1.0 0.0 0.0
1.0 0.0 0.0
1.0 0.0 0.0
1.0 0.0 0.0
1.0 0.0 0.0
1.0 0.0 0.0
1.0 0.0 0.0
1.0 0.0 0.0
1.0 0.0 0.0
1.0 0.0 0.0
1.0 0.0 0.0
1.0 0.0 0.0
1.0 0.0 0.0
1.0 0.0 0.0
1.0 0.0 0.0
1.0 0.0 0.0
1.0 0.0 0.0
1.0 0.0 0.0
1.0 0.0 0.0
1.0 0.0 0.0
1.0 0.0 0.0
1.0 0.0 0.0
1.0 0.0 0.0
1.0 0.0 0.0
1.0 0.0 0.0
1.0 0.0 0.0
1.0 0.0 0.0
1.0 0.0 0.0
1.0 0.0 0.0
1.0 0.0 0.0
1.0 0.0 0.0
1.0 0.0 0.0
1.0 0.0 0.0
1.0 0.0 0.0
1.0 0.0 0.0
1.0 0.0 0.0
1.0 0.0 0.0
1.0 0.0 0.0
1.0 0.0 0.0
1.0 0.0 0.0
1.0 0.0 0.0
1.0 0.0 0.0
1.0 0.0 0.0
1.0 0.0 0.0
1.0 0.0 0.0
1.0 0.0 0.0
1.0 0.0 0.0
1.0 0.0 0.0
1.0 0.0 0.0
1.0 0.0 0.0
1.0 0.0 0.0
1.0 0.0 0.0
1.0 0.0 0.0
1.0 0.0 0.0
1.0 0.0 0.0
1.0 0.0 0.0
1.0 0.0 0.0
1.0 0.0 0.0
1.0 0.0 0.0
1.0 0.0 0.0
1.0 0.0 0.0
1.0 0.0 0.0
1.0 0.0 0.0
1.0 0.0 0.0
1.0 0.0 0.0
1.0 0.0 0.0
1.0 0.0 0.0
1.0 0.0 0.0
1.0 0.0 0.0
1.0 0.0 0.0
1.0 0.0 0.0
1.0 0.0 0.0
1.0 0.0 0.0
0.0 0.0 0.0
0.0 0.0 0.0
0.0 0.0 0.0
0.0 0.0 0.0
0.0 0.0 0.0
0.0 0.0 0.0
0.0 0.0 0.0
0.0 0.0 0.0
0.0 0.0 0.0
0.0 0.0 0.0
0.0 0.0 0.0
0.0 0.0 0.0
0.0 0.0 0.0
0.0 0.0 0.0
0.0 0.0 0.0
0.0 0.0 0.0
0.0 0.0 0.0
0.0 0.0 0.0
0.0 0.0 0.0
0.0 0.0 0.0
0.0 0.0 0.0
0.0 0.0 0.0
0.0 0.0 0.0
0.0 0.0 0.0
0.0 0.0 0.0
0.0 0.0 0.0
0.0 0.0 0.0
0.0 0.0 0.0
0.0 0.0 0.0
0.0 0.0 0.0
0.0 0.0 0.0
0.0 0.0 0.0
0.0 0.0 0.0
0.0 0.0 0.0
0.0 0.0 0.0
0.0 0.0 0.0
0.0 0.0 0.0
0.0 0.0 0.0
0.0 0.0 0.0
0.0 0.0 0.0
0.0 0.0 0.0
0.0 0.0 0.0
0.0 0.0 0.0
0.0 0.0 0.0
0.0 0.0 0.0
0.0 0.0 0.0
0.0 0.0 0.0
0.0 0.0 0.0
0.0 0.0 0.0
0.0 0.0 0.0
0.0 0.0 0.0
0.0 0.0 0.0
0.0 0.0 0.0
0.0 0.0 0.0
0.0 0.0 0.0
0.0 0.0 0.0
0.0 0.0 0.0
0.0 0.0 0.0
0.0 0.0 0.0
0.0 0.0 0.0
0.0 0.0 0.0
0.0 0.0 0.0
0.0 0.0 0.0
0.0 0.0 0.0
0.0 0.0 0.0
0.0 0.0 0.0
0.0 0.0 0.0
0.0 0.0 0.0
0.0 0.0 0.0
0.0 0.0 0.0
0.0 0.0 0.0
0.0 0.0 0.0
0.0 0.0 0.0
0.0 0.0 0.0
0.0 0.0 0.0
0.0 0.0 0.0
0.0 0.0 0.0
0.0 0.0 0.0
0.0 0.0 0.0
-0.0555118477559 0.00361674770605 0.0
-0.108939258388 -0.0562648550957 0.0
-0.088163782543 0.0713491081457 0.0
-0.0260952286649 -0.0172116859533 0.0
-0.0247405720725 0.0173647631598 0.0
-0.116203243764 0.0178198798359 0.0
-0.0356932683234 0.050620566949 0.0
-0.0433632896119 -0.0564844526418 0.0
-0.0308132258938 0.000158499231503 0.0
-0.167659381215 -0.155459359455 0.0
-0.11787952991 0.159106593019 0.0
-0.0124757946505 -0.0109153610601 0.0
-0.0119786325519 0.0104565946587 0.0
-0.0585387489277 -0.00567046498899 0.0
-0.0425315361473 0.0955607127024 0.0
-0.0793287036021 0.0441217632421 0.0
-0.0614708191514 -0.111954492166 0.0
-0.0162189713503 -0.0336723914765 0.0
-0.0154139554094 0.0318415123439 0.0
-0.0238686718618 0.00470827584253 0.0
-0.0246629094739 -0.00462084044765 0.0
-0.0859177649259 -0.00861276379124 0.0
-0.0725517619563 0.0354646535773 0.0
-0.0522861263642 -0.0223158042528 0.0
-0.0414996437893 0.00889505904564 0.0
-0.0830449400502 0.0280452796637 0.0
-0.0619871561927 -0.0348043639729 0.0
-0.0454191388903 0.0231163208399 0.0
-0.0416648850041 -0.00388758256943 0.0
0.0923772782831 0.0161355164875 0.0
-0.0132595813831 0.0461128009203 0.0
-0.0228345909377 -0.0715469977481 0.0
-0.0252918578698 -0.000655377326095 0.0
0.140013533022 -0.019321217643 0.0
-0.0442083931097 0.138512117109 0.0
-0.00658425276951 -0.0186488352744 0.0
-0.0155167223914 0.00363654423112 0.0
-0.086943065966 -0.189287964126 0.0
0.0506464087243 0.0629761167153 0.0
-0.0162991987979 -0.00380002925335 0.0
-0.00640685396843 0.0179565150084 0.0
-0.134620805021 -0.0124944251985 0.0
-0.0668505724342 0.0657158659882 0.0
-0.0369265775135 -0.0317663972515 0.0
-0.0333433222009 0.00801224655022 0.0
-0.120278385735 0.0414710358826 0.0
-0.0858069008657 -0.0668981289171 0.0
-0.0329838891722 0.0308133880248 0.0
-0.0341623092869 -0.00711577322436 0.0
-0.057524677417 -0.297493335278 0.0
-0.0920898887736 0.244547064268 0.0
-0.00371102713645 -0.00365741952221 0.0
-0.00356955652971 0.00347850398858 0.0
0.222841086837 0.00484716282717 0.0
-0.0128770941598 0.0640651419189 0.0
-0.00851110344915 -0.0401340515108 0.0
-0.0204704864396 0.000966563927359 0.0
-0.131782902854 -0.114675611455 0.0
-0.12143551418 0.0849036784482 0.0
-0.0228486416905 -0.0110294055138 0.0
-0.0184913506689 0.0204610838037 0.0
-0.147177092647 -0.0501096684735 0.0
-0.0867274461987 0.110377084157 0.0
-0.0192218347067 -0.0211675253265 0.0
-0.0216659469535 0.0107974290097 0.0
-0.0861655313983 0.0103269907896 0.0
-0.0772272448111 -0.0134135438454 0.0
-0.0602589390673 0.0205277445962 0.0
-0.0528122589133 -0.00728006360564 0.0
-0.0981458551622 -0.0333688570045 0.0
-0.0782227208449 0.0481327651423 0.0
-0.0393498238312 -0.0151512904858 0.0
-0.0317170574426 0.0178577274275 0.0
0.268434011175 -0.000279907070315 0.0
-0.0125673158674 0.0807518780525 0.0
-0.00403165883155 -0.0244544493062 0.0
-0.0145633713509 0.00135387024049 0.0
-0.0188773588267 -0.0990228429387 0.0
-0.0160678226225 -0.00142659440692 0.0
0.206322039191 0.0190754222055 0.0
-0.00448758940305 0.0249235273131 0.0
0.140520832898 -0.0647186578804 0.0
-0.0599439621823 0.200894135203 0.0
-0.00327332530647 -0.00885599302213 0.0
-0.00757583356674 0.0028695351069 0.0
-0.111780465661 -0.314198134833 0.0
-0.00784332704305 -0.00301979137776 0.0
0.0409475663709 0.106529978501 0.0
-0.00318800004853 0.00848838377753 0.0
-0.109153505606 0.0112435022801 0.0
-0.051210658148 0.0391116596405 0.0
-0.0470357106607 -0.0404955806395 0.0
-0.0316198073372 0.00103474235182 0.0
-0.0817399678477 0.00773373686127 0.0
-0.0299738529551 0.0688662111312 0.0
-0.0222345363491 -0.0490367918345 0.0
-0.024384438126 0.00235674243161 0.0
-0.0623680242689 0.0309953369274 0.0
-0.0130274415104 0.041097810111 0.0
-0.0249028111696 -0.0790110542956 0.0
-0.0145836471288 -0.00295081730917 0.0
-0.0517231307386 0.00769382103202 0.0
-0.0470723490162 0.00101564832003 0.0
-0.0464181476326 -0.00566715126124 0.0
-0.0524529646921 -8.08341643545e-05 0.0
-0.00111233331525 -0.00228194985084 0.0
-0.000662755878923 -0.000652194262765 0.0
-0.00217282907168 0.00102367710539 0.0
-0.000626901792016 0.000613617639985 0.0
0.291791637188 -0.131991466147 0.0
0.023836279275 -0.354439717709 0.0
-0.0700451415157 0.26839131967 0.0
-0.0582646648749 0.283667975156 0.0
-0.00229121546662 -0.00108515473545 0.0
-0.00107177678754 0.00217241872323 0.0
-0.0972245052128 -0.434163218873 0.0
0.116862055696 0.146954238211 0.0
-0.0425057326465 0.00246302577249 0.0
-0.0465317681236 0.00850272497221 0.0
-0.101143762216 0.020519268542 0.0
-0.11207350272 0.0247012010757 0.0
-0.103535396829 0.0330679532863 0.0
-0.0621823297693 -0.0384589386567 0.0
-0.0625651658803 -0.0505312722487 0.0
-0.0753010314572 -0.0467419989867 0.0
-0.0475088873197 0.0306689226809 0.0
-0.041058944593 0.0361686358876 0.0
-0.0397318586442 0.0281873796977 0.0
-0.0381569283232 -0.00128697403364 0.0
-0.0346890147786 -0.00285610132288 0.0
-0.0368148845991 -0.00631063130279 0.0
-0.0663335321923 0.0274172803044 0.0
-0.0704327010451 0.0166104153641 0.0
-0.0777666697982 0.0233641206521 0.0
-0.0893660308508 0.0199002712583 0.0
-0.0837045851086 0.0311067901675 0.0
-0.062258927522 -0.0185215700213 0.0
-0.0615042731698 -0.00992741247367 0.0
-0.0527544408451 -0.0144681008879 0.0
-0.061632929912 -0.0278244166983 0.0
-0.0728101771621 -0.0250470731814 0.0
-0.11774097407 0.0143727943539 0.0
-0.116876603321 0.0270404313795 0.0
-0.0442254277118 0.0459155026913 0.0
-0.034383839163 0.0407586702611 0.0
-0.0495530589275 -0.0478602810108 0.0
-0.0567755019313 -0.0611702425328 0.0
-0.0333010499301 0.000626312553395 0.0
-0.0317803739692 -0.00261771510004 0.0
-0.0552479085432 0.0839715703297 0.0
-0.0739684835095 0.0873797683842 0.0
-0.0626316029704 0.105237919785 0.0
-0.121160008749 -0.0101648487639 0.0
-0.138836156152 -0.0289215453947 0.0
-0.113069498318 -0.0219963625834 0.0
-0.0272143817972 0.00654148835281 0.0
-0.0265848628468 0.0100625509127 0.0
-0.0233224306957 0.00744122044363 0.0
-0.0245652090301 -0.0339747674487 0.0
-0.0253480832497 -0.026414893456 0.0
-0.0180915063893 -0.027408121298 0.0
-0.0938763550553 0.0881753185462 0.0
-0.0827853086233 0.0714935348834 0.0
-0.142759581223 -0.0552232996774 0.0
-0.12970550982 -0.0355801007547 0.0
-0.0246274820463 0.0141655604282 0.0
-0.0294894117402 0.0131560091315 0.0
-0.0249020175946 -0.0197213930714 0.0
-0.0310088439422 -0.022701457012 0.0
-0.0946197809733 -0.120583244001 0.0
-0.101999930174 -0.0900779759517 0.0
-0.0752861312369 -0.0929888164897 0.0
-0.112215956615 0.0634157696113 0.0
-0.119054619189 0.0614417207241 0.0
-0.115878622094 0.0470739139538 0.0
-0.0242240264322 -0.0074209944138 0.0
-0.0275977801242 -0.00980899363506 0.0
-0.0276625246794 -0.00633590122011 0.0
-0.017131510474 0.0261282313021 0.0
-0.0236165850814 0.0254206211739 0.0
-0.0223962614464 0.0316915095693 0.0
-0.0494222872698 0.0158095941469 0.0
-0.0438700081001 0.0155175458171 0.0
0.471528905687 0.0053346815792 0.0
0.469740808654 0.0045693521212 0.0
-0.00306644627085 0.0268365006244 0.0
-0.00382940818886 0.0338763688431 0.0
-0.00662541278258 -0.0538727316288 0.0
-0.0053890263611 -0.0434467787441 0.0
-0.0149693189129 -0.000336328620571 0.0
-0.0156461094692 -3.28849646826e-05 0.0
-0.00654927410878 -0.0603240199893 0.0
-0.0210036743403 -0.086541797894 0.0
-0.0122912335039 -0.000442853252727 0.0
-0.0206177058973 -0.00131098591108 0.0
0.53212515931 0.00563103541598 0.0
0.173703471229 0.0174998664297 0.0
-0.0018869346535 0.0188725670018 0.0
-0.0073280463212 0.0331255434794 0.0
-0.0524540065368 -0.0313325974226 0.0
-0.038361830365 0.00415849545906 0.0
-0.105696489281 -0.0654929935681 0.0
-0.128509477857 -0.0796586482751 0.0
-0.107824597166 0.0588020563382 0.0
-0.110818280076 0.0781067688582 0.0
-0.0307546823768 -0.0125124619058 0.0
-0.0259342889503 -0.0142356484758 0.0
-0.0286463609196 0.022624759763 0.0
-0.0235510640597 0.0192929140994 0.0
-0.0912229176719 0.0379369710278 0.0
-0.0797175888886 0.0428921916195 0.0
-0.0396184489441 0.0207973054548 0.0
-0.0386188200286 0.0140391762323 0.0
-0.0553590338685 0.0143426174899 0.0
-0.0521794911132 0.0228687755214 0.0
-0.0712284114186 0.00608803238821 0.0
-0.0626298229299 0.0115398001506 0.0
-0.0590641597303 -0.00200180076088 0.0
-0.0680639231403 -0.00340165151052 0.0
-0.0377457760007 -0.0941077118532 0.0
-0.0405119357605 -0.114658085179 0.0
-0.0247259472514 -0.00243212790386 0.0
-0.0215982959091 -0.00281466331747 0.0
-0.020807604567 0.0284065684027 0.0
0.0373149493952 0.0331328632473 0.0
-0.0139436892586 0.0381421294913 0.0
-0.00944876163445 0.0301187445278 0.0
0.528771018894 -0.00398023331316 0.0
0.503607922449 -0.00955580054145 0.0
-0.0108536696849 0.0865035998824 0.0
-0.0171289352014 0.113723804986 0.0
-0.00172470582699 -0.0127828788822 0.0
-0.00162447786148 -0.00984075100786 0.0
-0.00979080054929 0.000877329174915 0.0
-0.00819473136228 0.00105899063806 0.0
-0.0350303887284 -0.167908917602 0.0
-0.0198339045233 -0.116274354601 0.0
-0.00867471731753 -0.00112428235567 0.0
-0.0104562127172 -0.000926686974794 0.0
0.398908669673 0.0278337163336 0.0
0.447273074661 0.0169251387157 0.0
-0.00159986503622 0.00955431621469 0.0
-0.0017200226476 0.0125526461842 0.0
0.164517424871 0.0088607613108 0.0
0.526562104541 0.00298657182537 0.0
-0.0125212974129 0.0552158175275 0.0
-0.00376094186469 0.0381720756112 0.0
-0.0127677355579 -0.0524752125211 0.0
-0.00339059944004 -0.0316090530717 0.0
-0.0225517301741 0.000433295239404 0.0
-0.0140878163276 0.000201035888935 0.0
-0.0733074876123 -0.144070063968 0.0
-0.123178054743 -0.159832447985 0.0
-0.0427909378169 0.0551800123704 0.0
-0.102593384215 0.0851725677431 0.0
-0.0210627870776 -0.00477831920758 0.0
-0.0198278654715 -0.00758521940395 0.0
-0.0107741823191 0.0252196029417 0.0
-0.0126361545537 0.02041667143 0.0
-0.105006830977 0.0115589592355 0.0
-0.0319041961034 0.0132281077608 0.0
-0.0839488824745 0.0200139305311 0.0
-0.0348793576596 0.060282997547 0.0
-0.0230367924966 0.0598785232337 0.0
-0.0252863077631 0.0521748640976 0.0
-0.0329353664091 -0.0528748763834 0.0
-0.0240713096548 -0.058567540586 0.0
-0.0346636133848 -0.0660121090998 0.0
-0.0291733612565 0.00166426786383 0.0
-0.0266867768253 0.000703850711491 0.0
-0.028179467296 -0.000376829088651 0.0
-0.0986323303321 -0.019401421143 0.0
-0.114872285212 -0.0258990804423 0.0
-0.111149562473 -0.0113315670393 0.0
-0.0788068047684 0.0562020529745 0.0
-0.0687555182272 0.0485313283202 0.0
-0.0448120035895 -0.0186941821246 0.0
-0.0380295674972 -0.0222141232662 0.0
-0.0442560736173 -0.0269194148972 0.0
-0.0340141495438 0.0129797005312 0.0
-0.0366275165181 0.0087996703311 0.0
-0.0701272059531 -0.0656761530039 0.0
-0.0904400928792 -0.0375074527925 0.0
-0.15672016344 -0.085744492438 0.0
-0.0849594589722 0.162541138056 0.0
-0.0716740345018 0.132208314989 0.0
-0.103785360104 0.134467040231 0.0
-0.00974686084243 -0.0156584734457 0.0
-0.0129969946887 -0.0212318596419 0.0
-0.0152820169246 -0.0160546998747 0.0
-0.0144908219427 0.00690202755003 0.0
-0.018881812405 0.0073190842329 0.0
-0.0168951673165 0.0109709655802 0.0
-0.111264588734 -0.0445353713595 0.0
-0.0924170576679 0.0586706035659 0.0
-0.0337873799538 -0.016812094073 0.0
-0.0315507500599 0.0178408908602 0.0
-0.0868329840344 -0.0113060612423 0.0
-0.0854065804765 -0.0229286007017 0.0
-0.0826492325479 -0.0355412103258 0.0
-0.0456693288831 -0.0118911528977 0.0
-0.0404078358282 -0.00941752693036 0.0
0.573846784801 0.00182123086747 0.0
-0.00378752743962 0.0426024531821 0.0
-0.00219236999253 -0.023232003851 0.0
-0.0122976387491 0.000315070703926 0.0
-0.108808002523 0.0268708837824 0.0
-0.113774383746 0.0353141239044 0.0
-0.045995492868 -0.0695215250481 0.0
-0.0594018983316 -0.0766422974626 0.0
-0.0273351419211 0.0449387206324 0.0
-0.0263500254577 0.0375693866358 0.0
-0.0287626676038 -0.00190917756762 0.0
-0.0289077551175 -0.00427934588963 0.0
0.15205138019 -0.0399502169108 0.0
0.515544229537 -0.0192439555269 0.0
-0.0549664268548 0.171284639658 0.0
-0.0227595583681 0.141144737026 0.0
-0.00475618767792 -0.01285787418 0.0
-0.00124106400141 -0.00650830674031 0.0
-0.0112004307904 0.00342602745323 0.0
-0.00576774695147 0.00096973239024 0.0
-0.0480796485328 -0.228462387603 0.0
-0.110634308644 -0.253850018559 0.0
-0.00608317095466 -0.00102925929404 0.0
-0.0116857971375 -0.00360565732151 0.0
0.389676111491 0.0390776420366 0.0
0.04874054556 0.086613900996 0.0
-0.00121336354079 0.00627876334917 0.0
-0.00462935395784 0.0123433663211 0.0
-0.0450623109409 0.115803210609 0.0
-0.00380270570377 -0.0126139725955 0.0
-0.0201807115922 0.00472514214229 0.0
-0.0111878088078 -0.0263258075444 0.0
-0.165701016586 -0.138914294208 0.0
-0.155679085869 -0.20754811791 0.0
-0.12166599951 0.115955143401 0.0
-0.0941697047906 0.114181192384 0.0
-0.0177792463609 -0.0114204079535 0.0
-0.0151539327565 -0.00724013945631 0.0
-0.0147707435711 0.0155014007954 0.0
-0.00948046948948 0.0150358434732 0.0
-0.00113794267807 -0.00415417551607 0.0
0.461142793891 -0.0465534337813 0.0
-0.00385331496698 0.000991902907782 0.0
-0.0375890797079 0.19183088587 0.0
-0.0733864575592 -0.328409909817 0.0
-0.00406111256086 -0.0010516085643 0.0
0.3018394384 0.069238645863 0.0
-0.00110566971083 0.00398359844055 0.0
0.0107855219011 0.00730844270242 0.0
-0.023587799177 0.0702226356091 0.0
-0.0170411449237 -0.0480739567722 0.0
-0.0249367332755 0.00168434035154 0.0
-0.00399202361803 -0.00660151684728 0.0
-0.00623579191924 0.00354419699338 0.0
0.0663177812692 -0.142437689729 0.0
-0.0920917198638 0.236691416774 0.0
-0.149592148082 -0.348036880423 0.0
-0.00649131122805 -0.00372870858419 0.0
-0.0350018904469 0.16719274255 0.0
-0.00386261305407 0.00630948775276 0.0
-0.155915802776 -0.0877487636123 0.0
-0.110305756481 0.103568367878 0.0
-0.0208519539214 -0.0156037619573 0.0
-0.0198524394586 0.0151588982493 0.0
-0.117341961858 0.000687320624417 0.0
-0.103672604882 2.99414349015e-05 0.0
-0.0563916871427 0.0498043263388 0.0
-0.0617484538354 0.0387493283724 0.0
-0.04512657256 -0.0365312166238 0.0
-0.0346804985211 0.0045465552036 0.0
-0.0755392910515 0.0266570977662 0.0
-0.0198241599892 0.0443734652159 0.0
-0.0971162390231 0.0356086986151 0.0
-0.019736170328 0.0375802946204 0.0
-0.038513134219 -0.0796983988237 0.0
-0.0266291912878 -0.00190604531201 0.0
-0.0522091995327 -0.0909026601812 0.0
-0.0264418880066 -0.00379660503093 0.0
0.594521969464 -0.000972202816452 0.0
0.232068620343 -0.00487701548918 0.0
-0.0056637457887 0.0609293031927 0.0
-0.0231669201766 0.104416801708 0.0
0.156707054594 0.0328656557871 0.0
0.0939250707633 -0.00183493692407 0.0
-0.0269909947875 0.0957291646728 0.0
-0.038486476795 -0.13336054956 0.0
-0.00539561449417 0.0219885933971 0.0
-0.0171775708482 -0.00232134488756 0.0
0.527977822474 0.00853678133143 0.0
-0.00926798130813 -0.0771568224207 0.0
-0.00153964323842 0.014612112064 0.0
-0.0108783922915 -0.000586649864966 0.0
-0.00143742106712 -0.0143744477352 0.0
-0.00540547710195 -0.022471408639 0.0
-0.00989908191009 0.000538121518726 0.0
-0.0161771428449 0.00224866373391 0.0
-0.00926562100806 -0.030643777786 0.0
-0.0202747623869 0.00281326823781 0.0
-0.121962095246 0.00539330677564 0.0
-0.0471473155975 0.0574757631398 0.0
-0.0392613845556 -0.0438475658165 0.0
-0.0317801011579 0.00332283037698 0.0
-0.0963873140845 0.00982238583921 0.0
-0.0906087697849 -0.000285516743506 0.0
-0.0563828366161 0.0301080819745 0.0
-0.0418521527964 -0.107620158463 0.0
-0.0956534202127 0.196060407989 0.0
-0.169103912797 -0.263087799325 0.0
-0.0071083297289 -0.0109760740224 0.0
-0.0832229906007 0.146276530167 0.0
-0.0103234915239 0.00585394838507 0.0
-0.0107202801799 -0.0061390411009 0.0
-0.00687937230401 0.0104998856094 0.0
-0.0767775686561 0.00156435986275 0.0
-0.116957859977 0.00110257327571 0.0
-0.0379017071088 0.0799551558706 0.0
-0.0459791817248 0.0697957799998 0.0
-0.0299437289385 -0.0418988462423 0.0
-0.0209687298667 -0.0413418683539 0.0
-0.02621689729 0.00372116426659 0.0
-0.0291747693314 0.00433708063391 0.0
-0.100875293297 0.0460498013833 0.0
-0.0925408528526 -0.0497099901269 0.0
-0.0344400876126 0.0234170080972 0.0
-0.0353630570443 -0.0111456011947 0.0
-0.131992845116 -0.22092074415 0.0
-0.111062497146 0.200584172229 0.0
-0.00761798825288 -0.00732245651261 0.0
-0.00735131811666 0.00699057956304 0.0