# vtk DataFile Version 2.0
2D Simulation Python
ASCII
DATASET UNSTRUCTURED_GRID
FIELD FieldData 1
NODES 1 2 int
7905 15488

POINTS 7905 double
0.0 0.0 0.0
1.0 0.0 0.0
1.0 1.0 0.0
0.0 1.0 0.0
0.01249999999997639 0.0 0.0
0.02499999999995297 0.0 0.0
0.03749999999992721 0.0 0.0
0.04999999999989927 0.0 0.0
0.0624999999998716 0.0 0.0
0.07499999999985263 0.0 0.0
0.08749999999983366 0.0 0.0
0.09999999999981467 0.0 0.0
0.1124999999997956 0.0 0.0
0.1249999999997765 0.0 0.0
0.1374999999997401 0.0 0.0
0.1499999999997036 0.0 0.0
0.1624999999996672 0.0 0.0
0.1749999999996308 0.0 0.0
0.1874999999995943 0.0 0.0
0.1999999999995579 0.0 0.0
0.2124999999995214 0.0 0.0
0.224999999999485 0.0 0.0
0.2374999999994485 0.0 0.0
0.2499999999994121 0.0 0.0
0.2624999999993757 0.0 0.0
0.2749999999993393 0.0 0.0
0.2874999999993028 0.0 0.0
0.2999999999992664 0.0 0.0
0.3124999999992299 0.0 0.0
0.3249999999991935 0.0 0.0
0.3374999999991571 0.0 0.0
0.3499999999991207 0.0 0.0
0.3624999999990842 0.0 0.0
0.3749999999990478 0.0 0.0
0.3874999999990113 0.0 0.0
0.3999999999989749 0.0 0.0
0.4124999999989398 0.0 0.0
0.4249999999989048 0.0 0.0
0.4374999999988697 0.0 0.0
0.4499999999988346 0.0 0.0
0.4624999999987995 0.0 0.0
0.4749999999987644 0.0 0.0
0.4874999999987293 0.0 0.0
0.4999999999986943 0.0 0.0
0.5124999999987259 0.0 0.0
0.5249999999987575 0.0 0.0
0.5374999999987891 0.0 0.0
0.5499999999988205 0.0 0.0
0.5624999999988521 0.0 0.0
0.5749999999988837 0.0 0.0
0.5874999999989152 0.0 0.0
0.5999999999989468 0.0 0.0
0.6124999999989797 0.0 0.0
0.6249999999990127 0.0 0.0
0.6374999999990456 0.0 0.0
0.6499999999990784 0.0 0.0
0.6624999999991114 0.0 0.0
0.6749999999991443 0.0 0.0
0.6874999999991771 0.0 0.0
0.69999999999921 0.0 0.0
0.712499999999243 0.0 0.0
0.7249999999992759 0.0 0.0
0.7374999999993088 0.0 0.0
0.7499999999993416 0.0 0.0
0.7624999999993746 0.0 0.0
0.7749999999994075 0.0 0.0
0.7874999999994404 0.0 0.0
0.7999999999994734 0.0 0.0
0.8124999999995063 0.0 0.0
0.8249999999995392 0.0 0.0
0.8374999999995721 0.0 0.0
0.8499999999996051 0.0 0.0
0.862499999999638 0.0 0.0
0.8749999999996709 0.0 0.0
0.8874999999997039 0.0 0.0
0.8999999999997368 0.0 0.0
0.9124999999997697 0.0 0.0
0.9249999999998026 0.0 0.0
0.9374999999998355 0.0 0.0
0.9499999999998684 0.0 0.0
0.9624999999999013 0.0 0.0
0.9749999999999343 0.0 0.0
0.9874999999999672 0.0 0.0
1.0 0.01249999999997639 0.0
1.0 0.02499999999995297 0.0
1.0 0.03749999999992721 0.0
1.0 0.04999999999989927 0.0
1.0 0.0624999999998716 0.0
1.0 0.07499999999985263 0.0
1.0 0.08749999999983366 0.0
1.0 0.09999999999981467 0.0
1.0 0.1124999999997956 0.0
1.0 0.1249999999997765 0.0
1.0 0.1374999999997401 0.0
1.0 0.1499999999997036 0.0
1.0 0.1624999999996672 0.0
1.0 0.1749999999996308 0.0
1.0 0.1874999999995943 0.0
1.0 0.1999999999995579 0.0
1.0 0.2124999999995214 0.0
1.0 0.224999999999485 0.0
1.0 0.2374999999994485 0.0
1.0 0.2499999999994121 0.0
1.0 0.2624999999993757 0.0
1.0 0.2749999999993393 0.0
1.0 0.2874999999993028 0.0
1.0 0.2999999999992664 0.0
1.0 0.3124999999992299 0.0
1.0 0.3249999999991935 0.0
1.0 0.3374999999991571 0.0
1.0 0.3499999999991207 0.0
1.0 0.3624999999990842 0.0
1.0 0.3749999999990478 0.0
1.0 0.3874999999990113 0.0
1.0 0.3999999999989749 0.0
1.0 0.4124999999989398 0.0
1.0 0.4249999999989048 0.0
1.0 0.4374999999988697 0.0
1.0 0.4499999999988346 0.0
1.0 0.4624999999987995 0.0
1.0 0.4749999999987644 0.0
1.0 0.4874999999987293 0.0
1.0 0.4999999999986943 0.0
1.0 0.5124999999987259 0.0
1.0 0.5249999999987575 0.0
1.0 0.5374999999987891 0.0
1.0 0.5499999999988205 0.0
1.0 0.5624999999988521 0.0
1.0 0.5749999999988837 0.0
1.0 0.5874999999989152 0.0
1.0 0.5999999999989468 0.0
1.0 0.6124999999989797 0.0
1.0 0.6249999999990127 0.0
1.0 0.6374999999990456 0.0
1.0 0.6499999999990784 0.0
1.0 0.6624999999991114 0.0
1.0 0.6749999999991443 0.0
1.0 0.6874999999991771 0.0
1.0 0.69999999999921 0.0
1.0 0.712499999999243 0.0
1.0 0.7249999999992759 0.0
1.0 0.7374999999993088 0.0
1.0 0.7499999999993416 0.0
1.0 0.7624999999993746 0.0
1.0 0.7749999999994075 0.0
1.0 0.7874999999994404 0.0
1.0 0.7999999999994734 0.0
1.0 0.8124999999995063 0.0
1.0 0.8249999999995392 0.0
1.0 0.8374999999995721 0.0
1.0 0.8499999999996051 0.0
1.0 0.862499999999638 0.0
1.0 0.8749999999996709 0.0
1.0 0.8874999999997039 0.0
1.0 0.8999999999997368 0.0
1.0 0.9124999999997697 0.0
1.0 0.9249999999998026 0.0
1.0 0.9374999999998355 0.0
1.0 0.9499999999998684 0.0
1.0 0.9624999999999013 0.0
1.0 0.9749999999999343 0.0
1.0 0.9874999999999672 0.0
0.9874999999999439 1.0 0.0
0.9749999999998877 1.0 0.0
0.9624999999998541 1.0 0.0
0.9499999999998356 1.0 0.0
0.9374999999997805 1.0 0.0
0.9249999999996992 1.0 0.0
0.9124999999996414 1.0 0.0
0.8999999999995836 1.0 0.0
0.8874999999996454 1.0 0.0
0.8749999999997078 1.0 0.0
0.8624999999997771 1.0 0.0
0.8499999999998515 1.0 0.0
0.837499999999895 1.0 0.0
0.8249999999999216 1.0 0.0
0.8124999999999571 1.0 0.0
0.7999999999999998 1.0 0.0
0.7875000000000937 1.0 0.0
0.77500000000021 1.0 0.0
0.7625000000002968 1.0 0.0
0.7500000000003858 1.0 0.0
0.7375000000004739 1.0 0.0
0.7250000000005448 1.0 0.0
0.7125000000005861 1.0 0.0
0.7000000000006934 1.0 0.0
0.6875000000008109 1.0 0.0
0.6750000000009306 1.0 0.0
0.6625000000010091 1.0 0.0
0.6500000000010593 1.0 0.0
0.6375000000011386 1.0 0.0
0.6250000000012101 1.0 0.0
0.612500000001312 1.0 0.0
0.6000000000013869 1.0 0.0
0.5875000000014601 1.0 0.0
0.5750000000015277 1.0 0.0
0.5625000000016089 1.0 0.0
0.5500000000016854 1.0 0.0
0.5375000000017889 1.0 0.0
0.5250000000018821 1.0 0.0
0.5125000000019756 1.0 0.0
0.5000000000020587 1.0 0.0
0.4875000000020093 1.0 0.0
0.4750000000019601 1.0 0.0
0.4625000000019108 1.0 0.0
0.4500000000018616 1.0 0.0
0.4375000000018123 1.0 0.0
0.425000000001763 1.0 0.0
0.4125000000017136 1.0 0.0
0.4000000000016644 1.0 0.0
0.3875000000016123 1.0 0.0
0.3750000000015603 1.0 0.0
0.3625000000015083 1.0 0.0
0.3500000000014563 1.0 0.0
0.3375000000014042 1.0 0.0
0.3250000000013522 1.0 0.0
0.3125000000013003 1.0 0.0
0.3000000000012483 1.0 0.0
0.2875000000011962 1.0 0.0
0.2750000000011442 1.0 0.0
0.2625000000010922 1.0 0.0
0.2500000000010403 1.0 0.0
0.2375000000009883 1.0 0.0
0.2250000000009362 1.0 0.0
0.2125000000008842 1.0 0.0
0.2000000000008322 1.0 0.0
0.1875000000007802 1.0 0.0
0.1750000000007281 1.0 0.0
0.1625000000006761 1.0 0.0
0.1500000000006241 1.0 0.0
0.1375000000005721 1.0 0.0
0.12500000000052 1.0 0.0
0.112500000000468 1.0 0.0
0.100000000000416 1.0 0.0
0.08750000000036395 1.0 0.0
0.07500000000031193 1.0 0.0
0.06250000000026001 1.0 0.0
0.05000000000020799 1.0 0.0
0.03750000000015596 1.0 0.0
0.02500000000010394 1.0 0.0
0.01250000000005191 1.0 0.0
0.0 0.9874999999999439 0.0
0.0 0.9749999999998877 0.0
0.0 0.9624999999998541 0.0
0.0 0.9499999999998356 0.0
0.0 0.9374999999997805 0.0
0.0 0.9249999999996992 0.0
0.0 0.9124999999996414 0.0
0.0 0.8999999999995836 0.0
0.0 0.8874999999996454 0.0
0.0 0.8749999999997078 0.0
0.0 0.8624999999997771 0.0
0.0 0.8499999999998515 0.0
0.0 0.837499999999895 0.0
0.0 0.8249999999999216 0.0
0.0 0.8124999999999571 0.0
0.0 0.7999999999999998 0.0
0.0 0.7875000000000937 0.0
0.0 0.77500000000021 0.0
0.0 0.7625000000002968 0.0
0.0 0.7500000000003858 0.0
0.0 0.7375000000004739 0.0
0.0 0.7250000000005448 0.0
0.0 0.7125000000005861 0.0
0.0 0.7000000000006934 0.0
0.0 0.6875000000008109 0.0
0.0 0.6750000000009306 0.0
0.0 0.6625000000010091 0.0
0.0 0.6500000000010593 0.0
0.0 0.6375000000011386 0.0
0.0 0.6250000000012101 0.0
0.0 0.612500000001312 0.0
0.0 0.6000000000013869 0.0
0.0 0.5875000000014601 0.0
0.0 0.5750000000015277 0.0
0.0 0.5625000000016089 0.0
0.0 0.5500000000016854 0.0
0.0 0.5375000000017889 0.0
0.0 0.5250000000018821 0.0
0.0 0.5125000000019756 0.0
0.0 0.5000000000020587 0.0
0.0 0.4875000000020093 0.0
0.0 0.4750000000019601 0.0
0.0 0.4625000000019108 0.0
0.0 0.4500000000018616 0.0
0.0 0.4375000000018123 0.0
0.0 0.425000000001763 0.0
0.0 0.4125000000017136 0.0
0.0 0.4000000000016644 0.0
0.0 0.3875000000016123 0.0
0.0 0.3750000000015603 0.0
0.0 0.3625000000015083 0.0
0.0 0.3500000000014563 0.0
0.0 0.3375000000014042 0.0
0.0 0.3250000000013522 0.0
0.0 0.3125000000013003 0.0
0.0 0.3000000000012483 0.0
0.0 0.2875000000011962 0.0
0.0 0.2750000000011442 0.0
0.0 0.2625000000010922 0.0
0.0 0.2500000000010403 0.0
0.0 0.2375000000009883 0.0
0.0 0.2250000000009362 0.0
0.0 0.2125000000008842 0.0
0.0 0.2000000000008322 0.0
0.0 0.1875000000007802 0.0
0.0 0.1750000000007281 0.0
0.0 0.1625000000006761 0.0
0.0 0.1500000000006241 0.0
0.0 0.1375000000005721 0.0
0.0 0.12500000000052 0.0
0.0 0.112500000000468 0.0
0.0 0.100000000000416 0.0
0.0 0.08750000000036395 0.0
0.0 0.07500000000031193 0.0
0.0 0.06250000000026001 0.0
0.0 0.05000000000020799 0.0
0.0 0.03750000000015596 0.0
0.0 0.02500000000010394 0.0
0.0 0.01250000000005191 0.0
0.499547313951317 0.4984202829398231 0.0
0.7057142553715264 0.7049957919913439 0.0
0.2942617789825218 0.706558362574613 0.0
0.7052750732513358 0.29408370064617073 0.0
0.2941161372558304 0.29425664999463297 0.0
0.49473409022248005 0.7865288457870021 0.0
0.21400675843102512 0.49559804899934157 0.0
0.7879606576561358 0.5053778129282838 0.0
0.505369301426186 0.2119891966328729 0.0
0.8286074034533916 0.8287576993256224 0.0
0.17122528584787128 0.8286011816233976 0.0
0.8287577004551061 0.17139259539200086 0.0
0.17140751986106711 0.17123186221929698 0.0
0.6412438345717256 0.8516520873564006 0.0
0.14868333985619164 0.6419476520576217 0.0
0.36001439100831745 0.8471882363166383 0.0
0.8472916681795735 0.639858398754968 0.0
0.8516551147624887 0.3587551765143301 0.0
0.1529024464427883 0.36006180552290556 0.0
0.3587547979315107 0.148343271772372 0.0
0.6398585806283599 0.15270777331315408 0.0
0.5665851234669081 0.6415505082226679 0.0
0.3688065763014604 0.5781443560211958 0.0
0.6448511073779454 0.4469929790001165 0.0
0.43335085497228876 0.35323599965884955 0.0
0.42653529248703315 0.6555720715037009 0.0
0.6657620768186652 0.5502649260729648 0.0
0.3566111211511165 0.42874186251021185 0.0
0.5447859278293945 0.34262223816401394 0.0
0.4594948214297615 0.8920313032464312 0.0
[...]
POINT_DATA 7905
VECTORS vector double
0.0 0.0 0.0
0.0 0.0 0.0
0.0 0.0 0.0
0.0 0.0 0.0
0.0 0.0 0.0
0.0 0.0 0.0
0.0 0.0 0.0
0.0 0.0 0.0
0.0 0.0 0.0
0.0 0.0 0.0
0.0 0.0 0.0
0.0 0.0 0.0
0.0 0.0 0.0
0.0 0.0 0.0
0.0 0.0 0.0
0.0 0.0 0.0
0.0 0.0 0.0
0.0 0.0 0.0
0.0 0.0 0.0
0.0 0.0 0.0
0.0 0.0 0.0
0.0 0.0 0.0
0.0 0.0 0.0
0.0 0.0 0.0
0.0 0.0 0.0
0.0 0.0 0.0
0.0 0.0 0.0
0.0 0.0 0.0
0.0 0.0 0.0
0.0 0.0 0.0
0.0 0.0 0.0
0.0 0.0 0.0
0.0 0.0 0.0
0.0 0.0 0.0
0.0 0.0 0.0
0.0 0.0 0.0
0.0 0.0 0.0
0.0 0.0 0.0
0.0 0.0 0.0
0.0 0.0 0.0
0.0 0.0 0.0
0.0 0.0 0.0
0.0 0.0 0.0
0.0 0.0 0.0
0.0 0.0 0.0
0.0 0.0 0.0
0.0 0.0 0.0
0.0 0.0 0.0
0.0 0.0 0.0
0.0 0.0 0.0
0.0 0.0 0.0
0.0 0.0 0.0
0.0 0.0 0.0
0.0 0.0 0.0
0.0 0.0 0.0
0.0 0.0 0.0
0.0 0.0 0.0
0.0 0.0 0.0
0.0 0.0 0.0
0.0 0.0 0.0
0.0 0.0 0.0
0.0 0.0 0.0
0.0 0.0 0.0
0.0 0.0 0.0
0.0 0.0 0.0
0.0 0.0 0.0
0.0 0.0 0.0
0.0 0.0 0.0
0.0 0.0 0.0
0.0 0.0 0.0
0.0 0.0 0.0
0.0 0.0 0.0
0.0 0.0 0.0
0.0 0.0 0.0
0.0 0.0 0.0
0.0 0.0 0.0
0.0 0.0 0.0
0.0 0.0 0.0
0.0 0.0 0.0
0.0 0.0 0.0
0.0 0.0 0.0
0.0 0.0 0.0
0.0 0.0 0.0
0.0 0.0 0.0
0.0 0.0 0.0
0.0 0.0 0.0
0.0 0.0 0.0
0.0 0.0 0.0
0.0 0.0 0.0
0.0 0.0 0.0
0.0 0.0 0.0
0.0 0.0 0.0
0.0 0.0 0.0
0.0 0.0 0.0
0.0 0.0 0.0
0.0 0.0 0.0
0.0 0.0 0.0
0.0 0.0 0.0
0.0 0.0 0.0
0.0 0.0 0.0
0.0 0.0 0.0
0.0 0.0 0.0
0.0 0.0 0.0
0.0 0.0 0.0
0.0 0.0 0.0
0.0 0.0 0.0
0.0 0.0 0.0
0.0 0.0 0.0
0.0 0.0 0.0
0.0 0.0 0.0
0.0 0.0 0.0
0.0 0.0 0.0
0.0 0.0 0.0
0.0 0.0 0.0
0.0 0.0 0.0
0.0 0.0 0.0
0.0 0.0 0.0
0.0 0.0 0.0
0.0 0.0 0.0
0.0 0.0 0.0
0.0 0.0 0.0
0.0 0.0 0.0
0.0 0.0 0.0
0.0 0.0 0.0
0.0 0.0 0.0
0.0 0.0 0.0
0.0 0.0 0.0
0.0 0.0 0.0
0.0 0.0 0.0
0.0 0.0 0.0
0.0 0.0 0.0
0.0 0.0 0.0
0.0 0.0 0.0
0.0 0.0 0.0
0.0 0.0 0.0
0.0 0.0 0.0
0.0 0.0 0.0
0.0 0.0 0.0
0.0 0.0 0.0
0.0 0.0 0.0
0.0 0.0 0.0
0.0 0.0 0.0
0.0 0.0 0.0
0.0 0.0 0.0
0.0 0.0 0.0
0.0 0.0 0.0
0.0 0.0 0.0
0.0 0.0 0.0
0.0 0.0 0.0
0.0 0.0 0.0
0.0 0.0 0.0
0.0 0.0 0.0
0.0 0.0 0.0
0.0 0.0 0.0
0.0 0.0 0.0
0.0 0.0 0.0
0.0 0.0 0.0
0.0 0.0 0.0
0.0 0.0 0.0
0.0 0.0 0.0
0.0 0.0 0.0
0.0 0.0 0.0
1.0 0.0 0.0
1.0 0.0 0.0
1.0 0.0 0.0
1.0 0.0 0.0
1.0 0.0 0.0
1.0 0.0 0.0
1.0 0.0 0.0
1.0 0.0 0.0
1.0 0.0 0.0
1.0 0.0 0.0
1.0 0.0 0.0
1.0 0.0 0.0
1.0 0.0 0.0
1.0 0.0 0.0
1.0 0.0 0.0
1.0 0.0 0.0
1.0 0.0 0.0
1.0 0.0 0.0
1.0 0.0 0.0
1.0 0.0 0.0
1.0 0.0 0.0
1.0 0.0 0.0
1.0 0.0 0.0
1.0 0.0 0.0
1.0 0.0 0.0
1.0 0.0 0.0
1.0 0.0 0.0
1.0 0.0 0.0
1.0 0.0 0.0
1.0 0.0 0.0
1.0 0.0 0.0
1.0 0.0 0.0
1.0 0.0 0.0
1.0 0.0 0.0
1.0 0.0 0.0
1.0 0.0 0.0
1.0 0.0 0.0
1.0 0.0 0.0
1.0 0.0 0.0
1.0 0.0 0.0
1.0 0.0 0.0
1.0 0.0 0.0
1.0 0.0 0.0
1.0 0.0 0.0
1.0 0.0 0.0
1.0 0.0 0.0
1.0 0.0 0.0
1.0 0.0 0.0
1.0 0.0 0.0
1.0 0.0 0.0
1.0 0.0 0.0
1.0 0.0 0.0
1.0 0.0 0.0
1.0 0.0 0.0
1.0 0.0 0.0
1.0 0.0 0.0
1.0 0.0 0.0
1.0 0.0 0.0
1.0 0.0 0.0
1.0 0.0 0.0
1.0 0.0 0.0
1.0 0.0 0.0
1.0 0.0 0.0
1.0 0.0 0.0
1.0 0.0 0.0
1.0 0.0 0.0
1.0 0.0 0.0
1.0 0.0 0.0
1.0 0.0 0.0
1.0 0.0 0.0
1.0 0.0 0.0
1.0 0.0 0.0
1.0 0.0 0.0
1.0 0.0 0.0
1.0 0.0 0.0
1.0 0.0 0.0
1.0 0.0 0.0
1.0 0.0 0.0
1.0 0.0 0.0
0.0 0.0 0.0
0.0 0.0 0.0
0.0 0.0 0.0
0.0 0.0 0.0
0.0 0.0 0.0
0.0 0.0 0.0
0.0 0.0 0.0
0.0 0.0 0.0
0.0 0.0 0.0
0.0 0.0 0.0
0.0 0.0 0.0
0.0 0.0 0.0
0.0 0.0 0.0
0.0 0.0 0.0
0.0 0.0 0.0
0.0 0.0 0.0
0.0 0.0 0.0
0.0 0.0 0.0
0.0 0.0 0.0
0.0 0.0 0.0
0.0 0.0 0.0
0.0 0.0 0.0
0.0 0.0 0.0
0.0 0.0 0.0
0.0 0.0 0.0
0.0 0.0 0.0
0.0 0.0 0.0
0.0 0.0 0.0
0.0 0.0 0.0
0.0 0.0 0.0
0.0 0.0 0.0
0.0 0.0 0.0
0.0 0.0 0.0
0.0 0.0 0.0
0.0 0.0 0.0
0.0 0.0 0.0
0.0 0.0 0.0
0.0 0.0 0.0
0.0 0.0 0.0
0.0 0.0 0.0
0.0 0.0 0.0
0.0 0.0 0.0
0.0 0.0 0.0
0.0 0.0 0.0
0.0 0.0 0.0
0.0 0.0 0.0
0.0 0.0 0.0
0.0 0.0 0.0
0.0 0.0 0.0
0.0 0.0 0.0
0.0 0.0 0.0
0.0 0.0 0.0
0.0 0.0 0.0
0.0 0.0 0.0
0.0 0.0 0.0
0.0 0.0 0.0
0.0 0.0 0.0
0.0 0.0 0.0
0.0 0.0 0.0
0.0 0.0 0.0
0.0 0.0 0.0
0.0 0.0 0.0
0.0 0.0 0.0
0.0 0.0 0.0
0.0 0.0 0.0
0.0 0.0 0.0
0.0 0.0 0.0
0.0 0.0 0.0
0.0 0.0 0.0
0.0 0.0 0.0
0.0 0.0 0.0
0.0 0.0 0.0
0.0 0.0 0.0
0.0 0.0 0.0
0.0 0.0 0.0
0.0 0.0 0.0
0.0 0.0 0.0
0.0 0.0 0.0
0.0 0.0 0.0
-0.163189680597 0.0401147174133 0.0
-0.179549088889 -0.112855610567 0.0
-0.104749961002 0.175730581277 0.0
-0.0702383605972 -0.0458478536881 0.0
-0.0580017888363 0.041303289044 0.0
-0.0105551383882 0.101433315507 0.0
-0.0611700617654 0.110587794647 0.0
-0.144695889161 -0.165863029134 0.0
-0.0700427697496 0.00104847096759 0.0
-0.00325950575077 -0.295630913108 0.0
-0.0802276799006 0.224184378268 0.0
-0.0178215236155 -0.0179287959924 0.0
-0.0184231800047 0.0169369467509 0.0
0.206998843759 0.00814695351624 0.0
-0.0498850305378 0.16397932142 0.0
0.053114568072 0.117114652035 0.0
-0.170448621773 -0.315899975817 0.0
-0.0359920737479 -0.0675518332301 0.0
-0.0275353909591 0.0583550414402 0.0
-0.0444455355762 0.0105601375907 0.0
-0.0471924267141 -0.011302677651 0.0
-0.189074445628 0.0442274500644 0.0
-0.130987296938 0.120396806756 0.0
-0.162338114093 -0.0585629358651 0.0
-0.102735611606 0.0300712869348 0.0
-0.142156977368 0.126833443295 0.0
-0.216253282287 -0.082514909966 0.0
-0.102221701525 0.0691670400267 0.0
-0.112146835669 -0.00647056412249 0.0
0.329569808234 0.0561330523226 0.0
-0.0172897194889 0.0766590674763 0.0
-0.0607830738579 -0.17033310131 0.0
-0.050329263827 -0.00146821493279 0.0
0.411669942929 -0.0500630698594 0.0
-0.0388433197 0.185390096685 0.0
-0.00948207598065 -0.0246308356653 0.0
-0.0231413800031 0.00654891241656 0.0
-0.123377897046 -0.434163252135 0.0
0.140737808032 0.105261424808 0.0
-0.0243823922885 -0.00770037463466 0.0
-0.0101284553693 0.0260839612392 0.0
-0.0327790378648 0.0353460062376 0.0
-0.0733423964009 0.154371259152 0.0
-0.0842860757763 -0.0887877042087 0.0
-0.0681380093273 0.0213627810376 0.0
-0.0744817498066 0.145888106496 0.0
-0.222435585336 -0.191313340012 0.0
-0.0603013703419 0.0725806321498 0.0
-0.0772537920844 -0.0189774246912 0.0
0.0616171397104 -0.366322998467 0.0
-0.0805147479688 0.255927540555 0.0
-0.00314946269847 -0.0035063673547 0.0
-0.00375005344185 0.00387427109774 0.0
0.487036394312 0.019815772523 0.0
-0.0161438657617 0.096881353115 0.0
-0.0194061944438 -0.0686209788366 0.0
-0.0347771521308 0.00241202869866 0.0
-0.184619762697 -0.287371608981 0.0
-0.0707506094079 0.17795235574 0.0
-0.0451188928659 -0.0261022086056 0.0
-0.0352482032133 0.0405858293036 0.0
0.00673830936628 -0.0992773889613 0.0
-0.0830005611195 0.201235147287 0.0
-0.0391085052249 -0.0455116455498 0.0
-0.041375291763 0.0228300266789 0.0
-0.1709018163 0.0805688225807 0.0
-0.201217394775 -0.00153071475368 0.0
-0.13605360021 0.0783218429998 0.0
-0.151540942252 -0.00752695927345 0.0
-0.217889952875 -0.0451080434924 0.0
-0.123274977027 0.150490653021 0.0
-0.110275425125 -0.0419421998802 0.0
-0.0804946729684 0.0487438725799 0.0
0.589500584776 -0.00157607098827 0.0
-0.0145967690447 0.110567583319 0.0
-0.00728647669783 -0.0320823169834 0.0
-0.0245472439512 0.00269541201357 0.0
-0.0593337835491 -0.23979681394 0.0
-0.0276164532742 -0.00325711224532 0.0
0.394861274969 0.0446686928896 0.0
-0.00751733402355 0.036378992635 0.0
0.393826777791 -0.107859858034 0.0
-0.053644354122 0.225311107599 0.0
-0.00376013220796 -0.0087930034548 0.0
-0.00972255875582 0.0041317769509 0.0
-0.0927729064672 -0.512505074854 0.0
-0.00927659916838 -0.00441775149981 0.0
0.10459334207 0.130393426569 0.0
-0.00445244173907 0.0100584978617 0.0
-0.130866951362 0.102221756891 0.0
-0.0975949217275 0.106501115979 0.0
-0.175942033013 -0.11870634685 0.0
-0.0881521596126 0.00510900955875 0.0
0.12866284073 0.059160046645 0.0
-0.0476146710261 0.130570870586 0.0
-0.0703354232056 -0.120121050422 0.0
-0.0545717057242 0.00609046791431 0.0
-0.00458128351902 0.113044429036 0.0
-0.0358913334151 0.0833885355338 0.0
-0.132198515813 -0.23305743622 0.0
-0.0496460095125 -0.00744178638877 0.0
-0.133040108828 0.0361796706371 0.0
-0.125744969074 0.012273329448 0.0
-0.129876303528 -0.00849073102548 0.0
-0.143385449547 0.0146378161453 0.0
-0.000779909857835 -0.00139144927788 0.0
-0.000700470454824 -0.000205739932727 0.0
-0.00268981882289 0.000929491272628 0.0
-0.000786453163022 0.000363834960531 0.0
0.369287390601 -0.146305572835 0.0
0.0622124944807 -0.373990330672 0.0
-0.0675936973971 0.266538515999 0.0
-0.0606415761057 0.28030238511 0.0
-0.00244915005299 -0.00079627587006 0.0
-0.00100251418201 0.00184433834231 0.0
-0.0574149917913 -0.514785488209 0.0
0.117304590512 0.149174452312 0.0
-0.110401510614 0.0128578897154 0.0
-0.117475368408 0.0331276190774 0.0
-0.139515169394 0.117857323823 0.0
-0.104217520069 0.125750608828 0.0
-0.121440801085 0.137602285746 0.0
-0.204243808742 -0.10558338356 0.0
-0.206323684911 -0.147966235445 0.0
-0.228622578627 -0.122741500583 0.0
-0.0992759071478 0.0872384898144 0.0
-0.0806314256021 0.0917127154314 0.0
-0.0841862939285 0.0748810016244 0.0
-0.099329545184 -0.000490691935284 0.0
-0.086935129956 -0.00642855915061 0.0
-0.0957922988035 -0.0159717396564 0.0
-0.135033985369 0.0992899571411 0.0
-0.155844834399 0.0807677164662 0.0
-0.151237529048 0.103392335419 0.0
-0.156291100192 0.108723918615 0.0
-0.142231195394 0.123880311088 0.0
-0.187578293181 -0.0352171732472 0.0
-0.177148243911 -0.00606673368733 0.0
-0.157719333216 -0.0314751029488 0.0
-0.195414565326 -0.0685912620485 0.0
-0.214510255704 -0.0445251861555 0.0
-0.0799563109843 0.105667972799 0.0
-0.057156784046 0.1232571434 0.0
-0.0793172187999 0.111496454997 0.0
-0.064385192117 0.0937879072145 0.0
-0.166736100637 -0.143248134782 0.0
-0.190222319452 -0.184458558569 0.0
-0.0805533341042 0.0029837276564 0.0
-0.0754458505309 -0.00634776441394 0.0
-0.0696634547834 0.166057577073 0.0
-0.0851610893992 0.180653118494 0.0
-0.0675010499035 0.186931278564 0.0
0.0520852214745 0.0198715012277 0.0
-0.0293304764787 -0.0278490385617 0.0
0.108270224279 -0.0296077781123 0.0
-0.0559617813199 0.0157960721573 0.0
-0.0551530279235 0.0237429319191 0.0
-0.0442501580599 0.0162829932913 0.0
-0.062130200751 -0.0822718884191 0.0
-0.0609722343241 -0.06523567167 0.0
-0.0384105448444 -0.0572128292058 0.0
-0.0946632001972 0.188191374775 0.0
-0.100949012928 0.171374284547 0.0
-0.106463434748 -0.105849683163 0.0
-0.131055726231 -0.0392529019202 0.0
-0.0508427493747 0.0320879591843 0.0
-0.064702077775 0.0328377723178 0.0
-0.0570456633348 -0.0488224766983 0.0
-0.0806083603821 -0.0615098802009 0.0
-0.201715979457 -0.329972887486 0.0
-0.2213503303 -0.245144234849 0.0
-0.209950245394 -0.27119685908 0.0
-0.0235919871341 0.148770915424 0.0
-0.0735006674251 0.162099935546 0.0
-0.0319807080808 0.140183301644 0.0
-0.0472444353277 -0.0180552418126 0.0
-0.0608284628757 -0.0254284029503 0.0
-0.0595435695956 -0.0163012075324 0.0
-0.0318180842535 0.0500531088185 0.0
-0.0467445030244 0.054908410186 0.0
-0.0425719584534 0.0656692592921 0.0
-0.118870491806 0.0554124894793 0.0
-0.104855373019 0.0494644358622 0.0
0.629487131462 0.0169396341707 0.0
0.652035984411 0.0144653286621 0.0
-0.00438988611109 0.0379730094288 0.0
-0.0052033945731 0.0483842787661 0.0
-0.0187236766347 -0.10790429254 0.0
-0.0137580456911 -0.0776066602657 0.0
-0.0275939078821 -0.000744145643601 0.0
-0.0290881935274 -3.89417427582e-05 0.0
-0.0187982611713 -0.129206874523 0.0
-0.0633371145859 -0.209285435019 0.0
-0.0224362439198 -0.000923282056226 0.0
-0.0351435177625 -0.00309898568683 0.0
0.654365218523 0.0143546610261 0.0
0.354873221907 0.0497238313138 0.0
-0.00281550868644 0.025598247281 0.0
-0.0115453020731 0.0513143187732 0.0
-0.170142607898 -0.0887973004184 0.0
-0.0965946666391 0.0150911332032 0.0
-0.222221404473 -0.160232348227 0.0
-0.183435418346 -0.189457000407 0.0
-0.100890735181 0.165170404742 0.0
-0.0928893367979 0.180549650053 0.0
-0.0749305741668 -0.0338497319115 0.0
-0.058023299544 -0.036102493059 0.0
-0.0603365979779 0.0536566793908 0.0
-0.0480677976355 0.0424904461582 0.0
-0.131410418781 0.139737339174 0.0
-0.126741211311 0.138349596407 0.0
-0.0904565505895 0.0588574878773 0.0
-0.0920137297554 0.0415609243985 0.0
-0.135132231356 0.05825440584 0.0
-0.117829560616 0.0752953982991 0.0
-0.173680119111 0.0566090585194 0.0
-0.153760172563 0.0598441280895 0.0
-0.163528484441 0.0173008172702 0.0
-0.182995037267 0.0249821369161 0.0
-0.118495735626 -0.255028466216 0.0
-0.113894461417 -0.302571891136 0.0
-0.0461180739408 -0.00589485570833 0.0
-0.0372292060696 -0.00661110441285 0.0
0.157160323047 0.0860996986081 0.0
0.195761594774 0.0814025879111 0.0
-0.0234824626748 0.0667532066983 0.0
-0.0158679931895 0.0489548263709 0.0
0.718884766959 -0.0115278320355 0.0
0.678635858857 -0.0233700182447 0.0
-0.00978522992479 0.104992589623 0.0
-0.0147593252244 0.130392436543 0.0
-0.00232543336274 -0.0128826946606 0.0
-0.00191921039571 -0.00900176662675 0.0
-0.01530837411 0.00134092086682 0.0
-0.0120693407526 0.00156418933977 0.0
-0.0469716604551 -0.33940002602 0.0
-0.038178803269 -0.261024615606 0.0
-0.0126197288562 -0.00185540474043 0.0
-0.0168163821202 -0.00168282610362 0.0
0.452810539565 0.0401097144216 0.0
0.525125491252 0.0284557608441 0.0
-0.0023247590782 0.011156901512 0.0
-0.00261613217015 0.015734398892 0.0
0.411081727451 0.0341403770135 0.0
0.713142045808 0.0089750936312 0.0
-0.0171858572386 0.087363860981 0.0
-0.00480325176761 0.0534010714693 0.0
-0.0337510708709 -0.104696769567 0.0
-0.00740024513322 -0.0482982611002 0.0
-0.039452486805 0.00121313991073 0.0
-0.0258497791278 0.000456172574107 0.0
-0.157976206128 -0.377793703264 0.0
-0.173689500336 -0.389776564862 0.0
0.0787896265039 0.11610683248 0.0
-0.0190040398219 0.15875858658 0.0
-0.0360174613654 -0.0109114359969 0.0
-0.0339093788342 -0.0165778939782 0.0
-0.0186413093762 0.042109352737 0.0
-0.022289496771 0.0353663083079 0.0
0.0577729102767 0.0794069432452 0.0
0.197396448411 0.0626422513257 0.0
0.0951093704538 0.087035447875 0.0
-0.0546452450297 0.122751655168 0.0
-0.0342713549866 0.107923262126 0.0
-0.0412968200443 0.101211150535 0.0
-0.103554972165 -0.1436921275 0.0
-0.0716571103923 -0.141704695546 0.0
-0.112588898356 -0.180530604237 0.0
-0.0627463182978 0.0046778222393 0.0
-0.0516169367047 0.00198221445781 0.0
-0.0582802770379 -0.000683413993981 0.0
-0.201621631918 0.0083273351435 0.0
-0.171632256643 -0.00600234305832 0.0
-0.158718694026 0.0431817528001 0.0
-0.111926755346 0.153964460844 0.0
-0.111752242288 0.136835552595 0.0
-0.133294704709 -0.0512169957279 0.0
-0.107934579258 -0.0631773693684 0.0
-0.135213372201 -0.0775978624354 0.0
-0.0785529512761 0.0354355513187 0.0
-0.0876934879204 0.0263720575125 0.0
0.18638524203 -0.139152045312 0.0
0.166324053166 -0.0824603169092 0.0
0.0153717865342 -0.183967575159 0.0
-0.0709160575061 0.225522135118 0.0
-0.0665125947184 0.20664499615 0.0
-0.0836355231603 0.216837127561 0.0
-0.0145009189925 -0.0235322629605 0.0
-0.0228552799511 -0.0372567804041 0.0
-0.0264086971534 -0.0302634517163 0.0
-0.0223087005365 0.012042688669 0.0
-0.032272181558 0.0143389848352 0.0
-0.0294303625924 0.0206437414065 0.0
-0.201546399159 -0.0771876002204 0.0
-0.112171357263 0.163288355361 0.0
-0.0894434773531 -0.0467344176887 0.0
-0.0704023819231 0.0454949336285 0.0
-0.204813198527 0.0237520167003 0.0
-0.219266001902 -0.0197613126567 0.0
-0.229479489512 -0.0706557644058 0.0
-0.132261923815 -0.0287726701969 0.0
-0.111273762896 -0.0240008736025 0.0
0.758142582505 0.00467456393118 0.0
-0.0045095557126 0.0581046999787 0.0
-0.00398393528291 -0.0309573201208 0.0
-0.0219451770941 0.000596763013751 0.0
0.0104891423983 0.110190225862 0.0
-0.0294119876854 0.128439625669 0.0
-0.158246619112 -0.205155555336 0.0
-0.195665338711 -0.229649312444 0.0
-0.0492958962652 0.0938486874073 0.0
-0.0502740360279 0.0807318464416 0.0
-0.0647395924826 -0.00464281911115 0.0
-0.0662924786737 -0.0110235621191 0.0
0.403372132714 -0.084197591917 0.0
0.653202614688 -0.0340497560158 0.0
-0.0469123664578 0.208095742571 0.0
-0.0195384619193 0.150996363064 0.0
-0.00599350397909 -0.0146703562771 0.0
-0.00125397695375 -0.0051217245675 0.0
-0.015178006621 0.0055320758437 0.0
-0.0080624749509 0.00122030600861 0.0
-0.0467038398533 -0.389849176889 0.0
-0.109563637751 -0.487422304084 0.0
-0.008069028086 -0.00133172128366 0.0
-0.0149594046384 -0.00624529892189 0.0
0.419913842121 0.0481698802214 0.0
0.113442230921 0.120370842719 0.0
-0.00158087122296 0.00651731630204 0.0
-0.00690521936515 0.0161855642497 0.0
-0.046271982748 0.178389299565 0.0
0.289822057517 -0.0255135922958 0.0
-0.0341742992794 0.00959164558047 0.0
-0.0204618615519 -0.0441818636823 0.0
-0.116016131791 -0.308689869902 0.0
-0.131211221108 -0.429732715695 0.0
-0.0745407692828 0.19813423289 0.0
-0.0267422603244 0.174842062926 0.0
-0.0305541500968 -0.0233550361631 0.0
-0.0223676357992 -0.0135984262981 0.0
-0.0261374334601 0.0280067095113 0.0
-0.0154372566476 0.0234142720978 0.0
-0.000964397925902 -0.00281691631971 0.0
0.565615543837 -0.0607509574894 0.0
-0.0050724787181 0.00104761381109 0.0
-0.033722141909 0.195082197491 0.0
-0.0542961494593 -0.462391866198 0.0
-0.00484907869707 -0.00102614736725 0.0
0.313250706521 0.0755209828563 0.0
-0.00122701736994 0.00366915883655 0.0
0.275413628775 0.0414772340146 0.0
-0.0319804113174 0.119823677235 0.0
-0.0449197227599 -0.101796518015 0.0
-0.0462635760186 0.00422419762302 0.0
-0.00388207552913 -0.00654258809072 0.0
-0.00723033645167 0.00459531597158 0.0
0.24515224085 -0.198602457781 0.0
-0.0781791242744 0.257563678028 0.0
-0.0612973521988 -0.493227743967 0.0
-0.00651384710124 -0.00459710479193 0.0
-0.00859862131502 0.188890696988 0.0
-0.00462991879442 0.00731965388796 0.0
-0.105025105215 -0.197220768357 0.0
-0.088721597696 0.19859784266 0.0
-0.0415397785405 -0.035142100703 0.0
-0.0381174834823 0.0309736794689 0.0
-0.112517969272 0.0777159510922 0.0
-0.162336611766 0.0739063795078 0.0
-0.0951644860033 0.128199752964 0.0
-0.114619652085 0.115688639986 0.0
-0.144744229857 -0.107557531765 0.0
-0.0835298937583 0.0140931869017 0.0
0.096768140961 0.0946113528491 0.0
-0.0341727340158 0.0838634860746 0.0
0.0354668645266 0.115224381357 0.0
-0.0360867879738 0.0732847201945 0.0
-0.128954720019 -0.22265293717 0.0
-0.0545020947001 -0.0046509826242 0.0
-0.169271766335 -0.264575477106 0.0
-0.055493919634 -0.00953337821173 0.0
0.774365733316 -0.00335713518542 0.0
0.515126871652 -0.0143767646816 0.0
-0.00542374672842 0.0772559627809 0.0
-0.0231711240625 0.142662513706 0.0
0.283055174821 0.065706211947 0.0
0.395850910148 0.00116216098613 0.0
-0.0300572582139 0.144888704881 0.0
-0.0894327566235 -0.329331451297 0.0
-0.0087356359708 0.0321157058875 0.0
-0.0269096201999 -0.00506265324535 0.0
0.625306757139 0.0169651475305 0.0
-0.0238944364955 -0.174292229898 0.0
-0.00234620739645 0.0190065079752 0.0
-0.0190603651489 -0.00106067189114 0.0
-0.00216689780736 -0.0158297077423 0.0
-0.00860196388369 -0.0296513243257 0.0
-0.0164324797634 0.000781571931155 0.0
-0.0249948569209 0.00423420668335 0.0
-0.0179054817338 -0.0496081911362 0.0
-0.034115116617 0.00593440556062 0.0
-0.0385011677618 0.0811356612898 0.0
-0.0755260846715 0.130923477069 0.0
-0.124311175053 -0.126431250039 0.0
-0.0728465357289 0.00960067544003 0.0
-0.163795312128 0.0932131595319 0.0
-0.186047480678 0.0623852874739 0.0
-0.116828397428 0.0946952744161 0.0
0.192634213696 -0.189800420778 0.0
-0.076786172215 0.241958080936 0.0
-0.0855103545693 -0.452956670409 0.0
-0.00887857976177 -0.0140178871272 0.0
-0.0337337034201 0.19062839745 0.0
-0.0141217194529 0.0089566134388 0.0
-0.0133743892157 -0.0095612868533 0.0
-0.00994711799806 0.0145101215182 0.0
0.158673612502 0.0385857502261 0.0
0.0344223573023 0.0578541524979 0.0
-0.0502134575161 0.146862855544 0.0
-0.0663424312313 0.144767961764 0.0
-0.0867410783248 -0.110418894628 0.0
-0.0544325954245 -0.0937694197163 0.0
-0.0518065414618 0.0090234840074 0.0
-0.0628477135766 0.011299714474 0.0
-0.115742115613 0.152564352275 0.0
-0.23258497783 -0.114955968027 0.0
-0.0750011239317 0.0602366920916 0.0
-0.0922523014884 -0.030514407058 0.0
0.038288047518 -0.338463342257 0.0
-0.081642416343 0.238975118448 0.0
-0.00863486928587 -0.009450429282 0.0
-0.00961247357555 0.009535444632 0.0
-0.191672041241 0.0427368015912 0.0
0.543396106395 0.00795236836353 0.0
0.78761048873 0.000917174771587 0.0
-0.0154777438471 0.105483464376 0.0
-0.004225308589 0.0634343819453 0.0
0.329175528348 0.0219605636059 0.0
-0.031764420617 0.133866099062 0.0
-0.011803241056 -0.0464492239589 0.0