# vtk DataFile Version 2.0
2D Simulation Python
ASCII
DATASET UNSTRUCTURED_GRID
FIELD FieldData 1
NODES 1 2 int
7905 15488

POINTS 7905 double
0.0 0.0 0.0
1.0 0.0 0.0
1.0 1.0 0.0
0.0 1.0 0.0
0.01249999999997639 0.0 0.0
0.02499999999995297 0.0 0.0
0.03749999999992721 0.0 0.0
0.04999999999989927 0.0 0.0
0.0624999999998716 0.0 0.0
0.07499999999985263 0.0 0.0
0.08749999999983366 0.0 0.0
0.09999999999981467 0.0 0.0
0.1124999999997956 0.0 0.0
0.1249999999997765 0.0 0.0
0.1374999999997401 0.0 0.0
0.1499999999997036 0.0 0.0
0.1624999999996672 0.0 0.0
0.1749999999996308 0.0 0.0
0.1874999999995943 0.0 0.0
0.1999999999995579 0.0 0.0
0.2124999999995214 0.0 0.0
0.224999999999485 0.0 0.0
0.2374999999994485 0.0 0.0
0.2499999999994121 0.0 0.0
0.2624999999993757 0.0 0.0
0.2749999999993393 0.0 0.0
0.2874999999993028 0.0 0.0
0.2999999999992664 0.0 0.0
0.3124999999992299 0.0 0.0
0.3249999999991935 0.0 0.0
0.3374999999991571 0.0 0.0
0.3499999999991207 0.0 0.0
0.3624999999990842 0.0 0.0
0.3749999999990478 0.0 0.0
0.3874999999990113 0.0 0.0
0.3999999999989749 0.0 0.0
0.4124999999989398 0.0 0.0
0.4249999999989048 0.0 0.0
0.4374999999988697 0.0 0.0
0.4499999999988346 0.0 0.0
0.4624999999987995 0.0 0.0
0.4749999999987644 0.0 0.0
0.4874999999987293 0.0 0.0
0.4999999999986943 0.0 0.0
0.5124999999987259 0.0 0.0
0.5249999999987575 0.0 0.0
0.5374999999987891 0.0 0.0
0.5499999999988205 0.0 0.0
0.5624999999988521 0.0 0.0
0.5749999999988837 0.0 0.0
0.5874999999989152 0.0 0.0
0.5999999999989468 0.0 0.0
0.6124999999989797 0.0 0.0
0.6249999999990127 0.0 0.0
0.6374999999990456 0.0 0.0
0.6499999999990784 0.0 0.0
0.6624999999991114 0.0 0.0
0.6749999999991443 0.0 0.0
0.6874999999991771 0.0 0.0
0.69999999999921 0.0 0.0
0.712499999999243 0.0 0.0
0.7249999999992759 0.0 0.0
0.7374999999993088 0.0 0.0
0.7499999999993416 0.0 0.0
0.7624999999993746 0.0 0.0
0.7749999999994075 0.0 0.0
0.7874999999994404 0.0 0.0
0.7999999999994734 0.0 0.0
0.8124999999995063 0.0 0.0
0.8249999999995392 0.0 0.0
0.8374999999995721 0.0 0.0
0.8499999999996051 0.0 0.0
0.862499999999638 0.0 0.0
0.8749999999996709 0.0 0.0
0.8874999999997039 0.0 0.0
0.8999999999997368 0.0 0.0
0.9124999999997697 0.0 0.0
0.9249999999998026 0.0 0.0
0.9374999999998355 0.0 0.0
0.9499999999998684 0.0 0.0
0.9624999999999013 0.0 0.0
0.9749999999999343 0.0 0.0
0.9874999999999672 0.0 0.0
1.0 0.01249999999997639 0.0
1.0 0.02499999999995297 0.0
1.0 0.03749999999992721 0.0
1.0 0.04999999999989927 0.0
1.0 0.0624999999998716 0.0
1.0 0.07499999999985263 0.0
1.0 0.08749999999983366 0.0
1.0 0.09999999999981467 0.0
1.0 0.1124999999997956 0.0
1.0 0.1249999999997765 0.0
1.0 0.1374999999997401 0.0
1.0 0.1499999999997036 0.0
1.0 0.1624999999996672 0.0
1.0 0.1749999999996308 0.0
1.0 0.1874999999995943 0.0
1.0 0.1999999999995579 0.0
1.0 0.2124999999995214 0.0
1.0 0.224999999999485 0.0
1.0 0.2374999999994485 0.0
1.0 0.2499999999994121 0.0
1.0 0.2624999999993757 0.0
1.0 0.2749999999993393 0.0
1.0 0.2874999999993028 0.0
1.0 0.2999999999992664 0.0
1.0 0.3124999999992299 0.0
1.0 0.3249999999991935 0.0
1.0 0.3374999999991571 0.0
1.0 0.3499999999991207 0.0
1.0 0.3624999999990842 0.0
1.0 0.3749999999990478 0.0
1.0 0.3874999999990113 0.0
1.0 0.3999999999989749 0.0
1.0 0.4124999999989398 0.0
1.0 0.4249999999989048 0.0
1.0 0.4374999999988697 0.0
1.0 0.4499999999988346 0.0
1.0 0.4624999999987995 0.0
1.0 0.4749999999987644 0.0
1.0 0.4874999999987293 0.0
1.0 0.4999999999986943 0.0
1.0 0.5124999999987259 0.0
1.0 0.5249999999987575 0.0
1.0 0.5374999999987891 0.0
1.0 0.5499999999988205 0.0
1.0 0.5624999999988521 0.0
1.0 0.5749999999988837 0.0
1.0 0.5874999999989152 0.0
1.0 0.5999999999989468 0.0
1.0 0.6124999999989797 0.0
1.0 0.6249999999990127 0.0
1.0 0.6374999999990456 0.0
1.0 0.6499999999990784 0.0
1.0 0.6624999999991114 0.0
1.0 0.6749999999991443 0.0
1.0 0.6874999999991771 0.0
1.0 0.69999999999921 0.0
1.0 0.712499999999243 0.0
1.0 0.7249999999992759 0.0
1.0 0.7374999999993088 0.0
1.0 0.7499999999993416 0.0
1.0 0.7624999999993746 0.0
1.0 0.7749999999994075 0.0
1.0 0.7874999999994404 0.0
1.0 0.7999999999994734 0.0
1.0 0.8124999999995063 0.0
1.0 0.8249999999995392 0.0
1.0 0.8374999999995721 0.0
1.0 0.8499999999996051 0.0
1.0 0.862499999999638 0.0
1.0 0.8749999999996709 0.0
1.0 0.8874999999997039 0.0
1.0 0.8999999999997368 0.0
1.0 0.9124999999997697 0.0
1.0 0.9249999999998026 0.0
1.0 0.9374999999998355 0.0
1.0 0.9499999999998684 0.0
1.0 0.9624999999999013 0.0
1.0 0.9749999999999343 0.0
1.0 0.9874999999999672 0.0
0.9874999999999439 1.0 0.0
0.9749999999998877 1.0 0.0
0.9624999999998541 1.0 0.0
0.9499999999998356 1.0 0.0
0.9374999999997805 1.0 0.0
0.9249999999996992 1.0 0.0
0.9124999999996414 1.0 0.0
0.8999999999995836 1.0 0.0
0.8874999999996454 1.0 0.0
0.8749999999997078 1.0 0.0
0.8624999999997771 1.0 0.0
0.8499999999998515 1.0 0.0
0.837499999999895 1.0 0.0
0.8249999999999216 1.0 0.0
0.8124999999999571 1.0 0.0
0.7999999999999998 1.0 0.0
0.7875000000000937 1.0 0.0
0.77500000000021 1.0 0.0
0.7625000000002968 1.0 0.0
0.7500000000003858 1.0 0.0
0.7375000000004739 1.0 0.0
0.7250000000005448 1.0 0.0
0.7125000000005861 1.0 0.0
0.7000000000006934 1.0 0.0
0.6875000000008109 1.0 0.0
0.6750000000009306 1.0 0.0
0.6625000000010091 1.0 0.0
0.6500000000010593 1.0 0.0
0.6375000000011386 1.0 0.0
0.6250000000012101 1.0 0.0
0.612500000001312 1.0 0.0
0.6000000000013869 1.0 0.0
0.5875000000014601 1.0 0.0
0.5750000000015277 1.0 0.0
0.5625000000016089 1.0 0.0
0.5500000000016854 1.0 0.0
0.5375000000017889 1.0 0.0
0.5250000000018821 1.0 0.0
0.5125000000019756 1.0 0.0
0.5000000000020587 1.0 0.0
0.4875000000020093 1.0 0.0
0.4750000000019601 1.0 0.0
0.4625000000019108 1.0 0.0
0.4500000000018616 1.0 0.0
0.4375000000018123 1.0 0.0
0.425000000001763 1.0 0.0
0.4125000000017136 1.0 0.0
0.4000000000016644 1.0 0.0
0.3875000000016123 1.0 0.0
0.3750000000015603 1.0 0.0
0.3625000000015083 1.0 0.0
0.3500000000014563 1.0 0.0
0.3375000000014042 1.0 0.0
0.3250000000013522 1.0 0.0
0.3125000000013003 1.0 0.0
0.3000000000012483 1.0 0.0
0.2875000000011962 1.0 0.0
0.2750000000011442 1.0 0.0
0.2625000000010922 1.0 0.0
0.2500000000010403 1.0 0.0
0.2375000000009883 1.0 0.0
0.2250000000009362 1.0 0.0
0.2125000000008842 1.0 0.0
0.2000000000008322 1.0 0.0
0.1875000000007802 1.0 0.0
0.1750000000007281 1.0 0.0
0.1625000000006761 1.0 0.0
0.1500000000006241 1.0 0.0
0.1375000000005721 1.0 0.0
0.12500000000052 1.0 0.0
0.112500000000468 1.0 0.0
0.100000000000416 1.0 0.0
0.08750000000036395 1.0 0.0
0.07500000000031193 1.0 0.0
0.06250000000026001 1.0 0.0
0.05000000000020799 1.0 0.0
0.03750000000015596 1.0 0.0
0.02500000000010394 1.0 0.0
0.01250000000005191 1.0 0.0
0.0 0.9874999999999439 0.0
0.0 0.9749999999998877 0.0
0.0 0.9624999999998541 0.0
0.0 0.9499999999998356 0.0
0.0 0.9374999999997805 0.0
0.0 0.9249999999996992 0.0
0.0 0.9124999999996414 0.0
0.0 0.8999999999995836 0.0
0.0 0.8874999999996454 0.0
0.0 0.8749999999997078 0.0
0.0 0.8624999999997771 0.0
0.0 0.8499999999998515 0.0
0.0 0.837499999999895 0.0
0.0 0.8249999999999216 0.0
0.0 0.8124999999999571 0.0
0.0 0.7999999999999998 0.0
0.0 0.7875000000000937 0.0
0.0 0.77500000000021 0.0
0.0 0.7625000000002968 0.0
0.0 0.7500000000003858 0.0
0.0 0.7375000000004739 0.0
0.0 0.7250000000005448 0.0
0.0 0.7125000000005861 0.0
0.0 0.7000000000006934 0.0
0.0 0.6875000000008109 0.0
0.0 0.6750000000009306 0.0
0.0 0.6625000000010091 0.0
0.0 0.6500000000010593 0.0
0.0 0.6375000000011386 0.0
0.0 0.6250000000012101 0.0
0.0 0.612500000001312 0.0
0.0 0.6000000000013869 0.0
0.0 0.5875000000014601 0.0
0.0 0.5750000000015277 0.0
0.0 0.5625000000016089 0.0
0.0 0.5500000000016854 0.0
0.0 0.5375000000017889 0.0
0.0 0.5250000000018821 0.0
0.0 0.5125000000019756 0.0
0.0 0.5000000000020587 0.0
0.0 0.4875000000020093 0.0
0.0 0.4750000000019601 0.0
0.0 0.4625000000019108 0.0
0.0 0.4500000000018616 0.0
0.0 0.4375000000018123 0.0
0.0 0.425000000001763 0.0
0.0 0.4125000000017136 0.0
0.0 0.4000000000016644 0.0
0.0 0.3875000000016123 0.0
0.0 0.3750000000015603 0.0
0.0 0.3625000000015083 0.0
0.0 0.3500000000014563 0.0
0.0 0.3375000000014042 0.0
0.0 0.3250000000013522 0.0
0.0 0.3125000000013003 0.0
0.0 0.3000000000012483 0.0
0.0 0.2875000000011962 0.0
0.0 0.2750000000011442 0.0
0.0 0.2625000000010922 0.0
0.0 0.2500000000010403 0.0
0.0 0.2375000000009883 0.0
0.0 0.2250000000009362 0.0
0.0 0.2125000000008842 0.0
0.0 0.2000000000008322 0.0
0.0 0.1875000000007802 0.0
0.0 0.1750000000007281 0.0
0.0 0.1625000000006761 0.0
0.0 0.1500000000006241 0.0
0.0 0.1375000000005721 0.0
0.0 0.12500000000052 0.0
0.0 0.112500000000468 0.0
0.0 0.100000000000416 0.0
0.0 0.08750000000036395 0.0
0.0 0.07500000000031193 0.0
0.0 0.06250000000026001 0.0
0.0 0.05000000000020799 0.0
0.0 0.03750000000015596 0.0
0.0 0.02500000000010394 0.0
0.0 0.01250000000005191 0.0
0.499547313951317 0.4984202829398231 0.0
0.7057142553715264 0.7049957919913439 0.0
0.2942617789825218 0.706558362574613 0.0
0.7052750732513358 0.29408370064617073 0.0
0.2941161372558304 0.29425664999463297 0.0
0.49473409022248005 0.7865288457870021 0.0
0.21400675843102512 0.49559804899934157 0.0
0.7879606576561358 0.5053778129282838 0.0
0.505369301426186 0.2119891966328729 0.0
0.8286074034533916 0.8287576993256224 0.0
0.17122528584787128 0.8286011816233976 0.0
0.8287577004551061 0.17139259539200086 0.0
0.17140751986106711 0.17123186221929698 0.0
0.6412438345717256 0.8516520873564006 0.0
0.14868333985619164 0.6419476520576217 0.0
0.36001439100831745 0.8471882363166383 0.0
0.8472916681795735 0.639858398754968 0.0
0.8516551147624887 0.3587551765143301 0.0
0.1529024464427883 0.36006180552290556 0.0
0.3587547979315107 0.148343271772372 0.0
0.6398585806283599 0.15270777331315408 0.0
0.5665851234669081 0.6415505082226679 0.0
0.3688065763014604 0.5781443560211958 0.0
0.6448511073779454 0.4469929790001165 0.0
0.43335085497228876 0.35323599965884955 0.0
0.42653529248703315 0.6555720715037009 0.0
0.6657620768186652 0.5502649260729648 0.0
0.3566111211511165 0.42874186251021185 0.0
0.5447859278293945 0.34262223816401394 0.0
0.4594948214297615 0.8920313032464312 0.0
[...]
POINT_DATA 7905
VECTORS vector double
0.0 0.0 0.0
0.0 0.0 0.0
0.0 0.0 0.0
0.0 0.0 0.0
0.0 0.0 0.0
0.0 0.0 0.0
0.0 0.0 0.0
0.0 0.0 0.0
0.0 0.0 0.0
0.0 0.0 0.0
0.0 0.0 0.0
0.0 0.0 0.0
0.0 0.0 0.0
0.0 0.0 0.0
0.0 0.0 0.0
0.0 0.0 0.0
0.0 0.0 0.0
0.0 0.0 0.0
0.0 0.0 0.0
0.0 0.0 0.0
0.0 0.0 0.0
0.0 0.0 0.0
0.0 0.0 0.0
0.0 0.0 0.0
0.0 0.0 0.0
0.0 0.0 0.0
0.0 0.0 0.0
0.0 0.0 0.0
0.0 0.0 0.0
0.0 0.0 0.0
0.0 0.0 0.0
0.0 0.0 0.0
0.0 0.0 0.0
0.0 0.0 0.0
0.0 0.0 0.0
0.0 0.0 0.0
0.0 0.0 0.0
0.0 0.0 0.0
0.0 0.0 0.0
0.0 0.0 0.0
0.0 0.0 0.0
0.0 0.0 0.0
0.0 0.0 0.0
0.0 0.0 0.0
0.0 0.0 0.0
0.0 0.0 0.0
0.0 0.0 0.0
0.0 0.0 0.0
0.0 0.0 0.0
0.0 0.0 0.0
0.0 0.0 0.0
0.0 0.0 0.0
0.0 0.0 0.0
0.0 0.0 0.0
0.0 0.0 0.0
0.0 0.0 0.0
0.0 0.0 0.0
0.0 0.0 0.0
0.0 0.0 0.0
0.0 0.0 0.0
0.0 0.0 0.0
0.0 0.0 0.0
0.0 0.0 0.0
0.0 0.0 0.0
0.0 0.0 0.0
0.0 0.0 0.0
0.0 0.0 0.0
0.0 0.0 0.0
0.0 0.0 0.0
0.0 0.0 0.0
0.0 0.0 0.0
0.0 0.0 0.0
0.0 0.0 0.0
0.0 0.0 0.0
0.0 0.0 0.0
0.0 0.0 0.0
0.0 0.0 0.0
0.0 0.0 0.0
0.0 0.0 0.0
0.0 0.0 0.0
0.0 0.0 0.0
0.0 0.0 0.0
0.0 0.0 0.0
0.0 0.0 0.0
0.0 0.0 0.0
0.0 0.0 0.0
0.0 0.0 0.0
0.0 0.0 0.0
0.0 0.0 0.0
0.0 0.0 0.0
0.0 0.0 0.0
0.0 0.0 0.0
0.0 0.0 0.0
0.0 0.0 0.0
0.0 0.0 0.0
0.0 0.0 0.0
0.0 0.0 0.0
0.0 0.0 0.0
0.0 0.0 0.0
0.0 0.0 0.0
0.0 0.0 0.0
0.0 0.0 0.0
0.0 0.0 0.0
0.0 0.0 0.0
0.0 0.0 0.0
0.0 0.0 0.0
0.0 0.0 0.0
0.0 0.0 0.0
0.0 0.0 0.0
0.0 0.0 0.0
0.0 0.0 0.0
0.0 0.0 0.0
0.0 0.0 0.0
0.0 0.0 0.0
0.0 0.0 0.0
0.0 0.0 0.0
0.0 0.0 0.0
0.0 0.0 0.0
0.0 0.0 0.0
0.0 0.0 0.0
0.0 0.0 0.0
0.0 0.0 0.0
0.0 0.0 0.0
0.0 0.0 0.0
0.0 0.0 0.0
0.0 0.0 0.0
0.0 0.0 0.0
0.0 0.0 0.0
0.0 0.0 0.0
0.0 0.0 0.0
0.0 0.0 0.0
0.0 0.0 0.0
0.0 0.0 0.0
0.0 0.0 0.0
0.0 0.0 0.0
0.0 0.0 0.0
0.0 0.0 0.0
0.0 0.0 0.0
0.0 0.0 0.0
0.0 0.0 0.0
0.0 0.0 0.0
0.0 0.0 0.0
0.0 0.0 0.0
0.0 0.0 0.0
0.0 0.0 0.0
0.0 0.0 0.0
0.0 0.0 0.0
0.0 0.0 0.0
0.0 0.0 0.0
0.0 0.0 0.0
0.0 0.0 0.0
0.0 0.0 0.0
0.0 0.0 0.0
0.0 0.0 0.0
0.0 0.0 0.0
0.0 0.0 0.0
0.0 0.0 0.0
0.0 0.0 0.0
0.0 0.0 0.0
0.0 0.0 0.0
0.0 0.0 0.0
0.0 0.0 0.0
1.0 0.0 0.0
1.0 0.0 0.0
1.0 0.0 0.0
1.0 0.0 0.0
1.0 0.0 0.0
1.0 0.0 0.0
1.0 0.0 0.0
1.0 0.0 0.0
1.0 0.0 0.0
1.0 0.0 0.0
1.0 0.0 0.0
1.0 0.0 0.0
1.0 0.0 0.0
1.0 0.0 0.0
1.0 0.0 0.0
1.0 0.0 0.0
1.0 0.0 0.0
1.0 0.0 0.0
1.0 0.0 0.0
1.0 0.0 0.0
1.0 0.0 0.0
1.0 0.0 0.0
1.0 0.0 0.0
1.0 0.0 0.0
1.0 0.0 0.0
1.0 0.0 0.0
1.0 0.0 0.0
1.0 0.0 0.0
1.0 0.0 0.0
1.0 0.0 0.0
1.0 0.0 0.0
1.0 0.0 0.0
1.0 0.0 0.0
1.0 0.0 0.0
1.0 0.0 0.0
1.0 0.0 0.0
1.0 0.0 0.0
1.0 0.0 0.0
1.0 0.0 0.0
1.0 0.0 0.0
1.0 0.0 0.0
1.0 0.0 0.0
1.0 0.0 0.0
1.0 0.0 0.0
1.0 0.0 0.0
1.0 0.0 0.0
1.0 0.0 0.0
1.0 0.0 0.0
1.0 0.0 0.0
1.0 0.0 0.0
1.0 0.0 0.0
1.0 0.0 0.0
1.0 0.0 0.0
1.0 0.0 0.0
1.0 0.0 0.0
1.0 0.0 0.0
1.0 0.0 0.0
1.0 0.0 0.0
1.0 0.0 0.0
1.0 0.0 0.0
1.0 0.0 0.0
1.0 0.0 0.0
1.0 0.0 0.0
1.0 0.0 0.0
1.0 0.0 0.0
1.0 0.0 0.0
1.0 0.0 0.0
1.0 0.0 0.0
1.0 0.0 0.0
1.0 0.0 0.0
1.0 0.0 0.0
1.0 0.0 0.0
1.0 0.0 0.0
1.0 0.0 0.0
1.0 0.0 0.0
1.0 0.0 0.0
1.0 0.0 0.0
1.0 0.0 0.0
1.0 0.0 0.0
0.0 0.0 0.0
0.0 0.0 0.0
0.0 0.0 0.0
0.0 0.0 0.0
0.0 0.0 0.0
0.0 0.0 0.0
0.0 0.0 0.0
0.0 0.0 0.0
0.0 0.0 0.0
0.0 0.0 0.0
0.0 0.0 0.0
0.0 0.0 0.0
0.0 0.0 0.0
0.0 0.0 0.0
0.0 0.0 0.0
0.0 0.0 0.0
0.0 0.0 0.0
0.0 0.0 0.0
0.0 0.0 0.0
0.0 0.0 0.0
0.0 0.0 0.0
0.0 0.0 0.0
0.0 0.0 0.0
0.0 0.0 0.0
0.0 0.0 0.0
0.0 0.0 0.0
0.0 0.0 0.0
0.0 0.0 0.0
0.0 0.0 0.0
0.0 0.0 0.0
0.0 0.0 0.0
0.0 0.0 0.0
0.0 0.0 0.0
0.0 0.0 0.0
0.0 0.0 0.0
0.0 0.0 0.0
0.0 0.0 0.0
0.0 0.0 0.0
0.0 0.0 0.0
0.0 0.0 0.0
0.0 0.0 0.0
0.0 0.0 0.0
0.0 0.0 0.0
0.0 0.0 0.0
0.0 0.0 0.0
0.0 0.0 0.0
0.0 0.0 0.0
0.0 0.0 0.0
0.0 0.0 0.0
0.0 0.0 0.0
0.0 0.0 0.0
0.0 0.0 0.0
0.0 0.0 0.0
0.0 0.0 0.0
0.0 0.0 0.0
0.0 0.0 0.0
0.0 0.0 0.0
0.0 0.0 0.0
0.0 0.0 0.0
0.0 0.0 0.0
0.0 0.0 0.0
0.0 0.0 0.0
0.0 0.0 0.0
0.0 0.0 0.0
0.0 0.0 0.0
0.0 0.0 0.0
0.0 0.0 0.0
0.0 0.0 0.0
0.0 0.0 0.0
0.0 0.0 0.0
0.0 0.0 0.0
0.0 0.0 0.0
0.0 0.0 0.0
0.0 0.0 0.0
0.0 0.0 0.0
0.0 0.0 0.0
0.0 0.0 0.0
0.0 0.0 0.0
0.0 0.0 0.0
-0.200428595184 0.0565448440258 0.0
-0.134570654266 -0.142876582637 0.0
-0.0780309190485 0.212335259346 0.0
-0.0977062936208 -0.0644805835816 0.0
-0.0776524733546 0.056184152222 0.0
0.0492038967675 0.114355529331 0.0
-0.0696259678429 0.144161491294 0.0
-0.17694413859 -0.220349542522 0.0
-0.0938437759891 -1.01198886582e-05 0.0
0.0292119082205 -0.31201444601 0.0
-0.0681346760316 0.234985150491 0.0
-0.0202110902983 -0.0212110929966 0.0
-0.0235933049379 0.0218375895214 0.0
0.259529987834 -0.000917883782675 0.0
-0.0440071927193 0.192245414917 0.0
0.0902232243 0.133314699274 0.0
-0.172529959525 -0.376389714408 0.0
-0.0494112851036 -0.0872156715863 0.0
-0.0351300389922 0.0759534206729 0.0
-0.0574642796345 0.0140901255873 0.0
-0.0589837309498 -0.0166362675074 0.0
-0.16737880759 0.0467908494987 0.0
-0.134255132931 0.161897114374 0.0
-0.21178142498 -0.0832500170174 0.0
-0.140050159201 0.0430781782352 0.0
-0.118511850867 0.161299947576 0.0
-0.244458610207 -0.113291557164 0.0
-0.130825219357 0.0977642281622 0.0
-0.155952111084 -0.010139139598 0.0
0.366047230232 0.0631169783395 0.0
-0.0217249884533 0.0972459857046 0.0
-0.075010352969 -0.216641994065 0.0
-0.0668624950193 -0.00278397290144 0.0
0.439507808487 -0.0584563739567 0.0
-0.0330882898251 0.197862950331 0.0
-0.0116531436189 -0.0272847965758 0.0
-0.0293302254498 0.0087504087377 0.0
-0.113772682384 -0.476755624796 0.0
0.151583845492 0.112686855657 0.0
-0.0278856330441 -0.0103276470774 0.0
-0.0132564981191 0.0333510607342 0.0
0.0282628246097 0.0271108929006 0.0
-0.0719206945157 0.195286680977 0.0
-0.129591280834 -0.123238312126 0.0
-0.0991680857971 0.029213085272 0.0
-0.0297415472044 0.175426349141 0.0
-0.228191514205 -0.241589865075 0.0
-0.0792125619476 0.0981230504162 0.0
-0.10723435488 -0.0285526582909 0.0
0.0710631748721 -0.370151442227 0.0
-0.0812091647405 0.255699358913 0.0
-0.00249714521727 -0.00353833383479 0.0
-0.00452173261287 0.00505790277609 0.0
0.522417129835 0.0190015360194 0.0
-0.0153782319141 0.116050727305 0.0
-0.0265209452092 -0.0866119373195 0.0
-0.0440777229068 0.0031884790167 0.0
-0.150846758284 -0.326197477116 0.0
-0.0400636310027 0.201514234104 0.0
-0.0574574280607 -0.0356602454367 0.0
-0.0461698603345 0.0534834381117 0.0
0.0591733289383 -0.1206395993 0.0
-0.0656307381707 0.229355289273 0.0
-0.0520094378466 -0.0592794590816 0.0
-0.0540535941338 0.0303774590768 0.0
-0.173721525422 0.105724197986 0.0
-0.227188691462 -0.00541719835828 0.0
-0.162225303154 0.110760879088 0.0
-0.200840948401 -0.0108304288136 0.0
-0.19896297593 -0.0666288438757 0.0
-0.103646764821 0.191585887509 0.0
-0.153799743487 -0.0608879090247 0.0
-0.108599928954 0.068232519758 0.0
0.619920123395 -0.00525204204815 0.0
-0.0127956128159 0.123879504323 0.0
-0.0097583493637 -0.0366199302932 0.0
-0.0311405459889 0.00376830623253 0.0
-0.0632372859744 -0.28469092857 0.0
-0.0328975314002 -0.00492323895127 0.0
0.411464307349 0.0500604169573 0.0
-0.00957244698158 0.0466187416832 0.0
0.408689961545 -0.111642028525 0.0
-0.0508088566753 0.227394969469 0.0
-0.0034505437153 -0.00840431197493 0.0
-0.011926993708 0.00547367586703 0.0
-0.0810439323197 -0.532328086802 0.0
-0.00890003503792 -0.00528213733801 0.0
0.104825792 0.132790953162 0.0
-0.00552846527257 0.0126879880348 0.0
-0.0874815587672 0.119887351716 0.0
-0.112618356079 0.14478981124 0.0
-0.219607841391 -0.162298323887 0.0
-0.123042611056 0.00609000274244 0.0
0.190733960739 0.0607419611575 0.0
-0.048588120267 0.162292794156 0.0
-0.0947548079978 -0.159667369565 0.0
-0.0717030414285 0.0076185037095 0.0
0.0572178633852 0.130764460593 0.0
-0.0482261233666 0.108841961112 0.0
-0.174866006032 -0.295043657692 0.0
-0.0716302785456 -0.0119418140855 0.0
-0.174669243587 0.0527716022001 0.0
-0.171263353789 0.0178470124783 0.0
-0.178117237256 -0.0125505872005 0.0
-0.18986189195 0.0214905939165 0.0
-0.000488936757953 -0.00117614171736 0.0
-0.00064436108677 -0.000312769744819 0.0
-0.00334820833688 0.00150494184811 0.0
-0.000996536405229 0.000665708436841 0.0
0.372327125193 -0.147569597818 0.0
0.0639504596382 -0.374256823171 0.0
-0.0681275618664 0.265483289208 0.0
-0.061603255822 0.280288102229 0.0
-0.00229230798149 -0.00108397727847 0.0
-0.00119675606401 0.00247207645486 0.0
-0.0537372917956 -0.519885392937 0.0
0.11514164522 0.149356067325 0.0
-0.15221666128 0.0182135002754 0.0
-0.158013335034 0.0481037440109 0.0
-0.106227626943 0.145408759557 0.0
-0.0570437151188 0.150813844079 0.0
-0.0850140093834 0.170462806558 0.0
-0.239005930363 -0.144011307327 0.0
-0.23450739348 -0.196334221613 0.0
-0.243173653705 -0.162686702406 0.0
-0.121608527193 0.121165086695 0.0
-0.0983873272236 0.124706042621 0.0
-0.107282287057 0.103654789124 0.0
-0.138047120942 -0.00182079664332 0.0
-0.11993266376 -0.010777878569 0.0
-0.133418470892 -0.0243558705613 0.0
-0.150437633624 0.137204636774 0.0
-0.174349070826 0.111807543938 0.0
-0.155520303395 0.139357392467 0.0
-0.142768306442 0.140222812976 0.0
-0.133000162808 0.162708273336 0.0
-0.230804115431 -0.0505136251803 0.0
-0.220860336243 -0.00927396784947 0.0
-0.208049548387 -0.0452791330282 0.0
-0.236255419688 -0.0960361535139 0.0
-0.240314856955 -0.06380405296 0.0
-0.0244073586171 0.120721121989 0.0
-0.00261315565831 0.144516844434 0.0
-0.0906632911068 0.148264955897 0.0
-0.0778763571044 0.124944126561 0.0
-0.204232842107 -0.193245712886 0.0
-0.216573706989 -0.24047550757 0.0
-0.11004287638 0.00279678584433 0.0
-0.102204794496 -0.0107185033204 0.0
-0.0628316324976 0.20115595952 0.0
-0.0714129068149 0.216455474846 0.0
-0.0564800825453 0.216215071299 0.0
0.112617880621 0.00944782395886 0.0
0.0292105035035 -0.0462513485378 0.0
0.162274384255 -0.0449672328576 0.0
-0.0739472161071 0.0212024681975 0.0
-0.0732477568901 0.032083251015 0.0
-0.0576130357956 0.0217560716444 0.0
-0.0857332871099 -0.110608574918 0.0
-0.0843901447572 -0.0884506723021 0.0
-0.0522912079211 -0.0741860169761 0.0
-0.0724716722022 0.221904915798 0.0
-0.0839930090539 0.211014579855 0.0
-0.0538072384546 -0.13204547025 0.0
-0.0786108581982 -0.0604969542045 0.0
-0.0673485883998 0.0431993759871 0.0
-0.0868286457711 0.0449944643484 0.0
-0.0776852823284 -0.0665922719336 0.0
-0.112210982683 -0.0860187716357 0.0
-0.187152699354 -0.381865703754 0.0
-0.201703164907 -0.29212051485 0.0
-0.209914206033 -0.328830700253 0.0
0.0115715735341 0.169002170579 0.0
-0.0343849700556 0.190168613226 0.0
0.0128524699371 0.163331262311 0.0
-0.0595028502091 -0.0255476856919 0.0
-0.080665575262 -0.0364725781107 0.0
-0.0778022333691 -0.0241403734318 0.0
-0.0413375659911 0.0656161700296 0.0
-0.0610988347416 0.0732907606843 0.0
-0.0544948961559 0.0868279210086 0.0
-0.154054593362 0.0798168380565 0.0
-0.139167728195 0.0708782568506 0.0
0.645492816808 0.0193329101502 0.0
0.671781384679 0.0159818876878 0.0
-0.00529468293045 0.0483242360848 0.0
-0.00578971049418 0.0605682514522 0.0
-0.0220358645119 -0.13422927489 0.0
-0.0173342021994 -0.0979742609802 0.0
-0.0343786444813 -0.0013248264138 0.0
-0.0367598126233 -0.000158360833024 0.0
-0.0207817858034 -0.156401094859 0.0
-0.0705018377007 -0.256535388243 0.0
-0.027421948768 -0.00165954624481 0.0
-0.0429639066706 -0.00486304286431 0.0
0.664494905465 0.0171115144728 0.0
0.379423476496 0.0562090287423 0.0
-0.00354568656727 0.0328415824858 0.0
-0.0142679446736 0.0656764585428 0.0
-0.216161604544 -0.123939419196 0.0
-0.133265817572 0.0209516115589 0.0
-0.196957516805 -0.198914156367 0.0
-0.14319344515 -0.224678196991 0.0
-0.0662967497322 0.199832127791 0.0
-0.0620306670384 0.211712289049 0.0
-0.102865184623 -0.048782325394 0.0
-0.07769630488 -0.050213564629 0.0
-0.07956919482 0.0729600602143 0.0
-0.0634596207194 0.0569571707102 0.0
-0.109190023447 0.178483185163 0.0
-0.117782291733 0.180764068991 0.0
-0.118941222634 0.0828565734713 0.0
-0.124121662843 0.0589407702758 0.0
-0.169846239951 0.0838583196106 0.0
-0.146197351216 0.10680195542 0.0
-0.196260142358 0.0774021380805 0.0
-0.184520180568 0.0849477195998 0.0
-0.206658317648 0.0247029498619 0.0
-0.215059711387 0.0334998752648 0.0
-0.13002267371 -0.314315776602 0.0
-0.118042646348 -0.359222615064 0.0
-0.0576541085557 -0.00918657627773 0.0
-0.0449965892501 -0.00979700568743 0.0
0.194991228327 0.0980241272206 0.0
0.221813753402 0.0914894443494 0.0
-0.029019810258 0.0860696063347 0.0
-0.0201712083695 0.0630726707932 0.0
0.731089039768 -0.0147510942703 0.0
0.687583007758 -0.0262532202935 0.0
-0.00879183856063 0.110867771662 0.0
-0.0133570079686 0.133950933645 0.0
-0.0023996484461 -0.0125164104458 0.0
-0.00188530874224 -0.00834654074107 0.0
-0.0192924322497 0.00211154042971 0.0
-0.0151220654974 0.00236286732319 0.0
-0.0443346577935 -0.367411936065 0.0
-0.037519398496 -0.293042489833 0.0
-0.0138313441402 -0.002754099111 0.0
-0.019310740401 -0.00271100323046 0.0
0.453070797423 0.0427707154398 0.0
0.528340259157 0.0316987018726 0.0
-0.00296887850311 0.0141617761815 0.0
-0.00337283366675 0.0200891131088 0.0
0.448169016237 0.0364416443226 0.0
0.732875106165 0.00833719624989 0.0
-0.0181273856141 0.107957675635 0.0
-0.00460689552931 0.0648554793558 0.0
-0.0436851231979 -0.134463226084 0.0
-0.010112868422 -0.0601894215629 0.0
-0.0499791966386 0.00131013736856 0.0
-0.0328630828194 0.000848205099851 0.0
-0.15110838354 -0.43159632102 0.0
-0.150272688846 -0.43130518377 0.0
0.103512660889 0.128721634686 0.0
0.0047369720629 0.173940057445 0.0
-0.0430538787909 -0.0153469961569 0.0
-0.0404900996398 -0.0222345487135 0.0
-0.0241118725483 0.054431831936 0.0
-0.0289906487387 0.0458543149063 0.0
0.118440363015 0.0856304639699 0.0
0.248816653344 0.0680353927304 0.0
0.149935620314 0.0977572014654 0.0
-0.0586240752495 0.156161173539 0.0
-0.0369920184599 0.135375706636 0.0
-0.0471819055822 0.129736205735 0.0
-0.132758695844 -0.191899378119 0.0
-0.0912036377298 -0.185433166855 0.0
-0.136671965765 -0.235278574705 0.0
-0.0829553561716 0.00538628871934 0.0
-0.066524594981 0.00188565729946 0.0
-0.0759044098131 -0.00222620923875 0.0
-0.179556044296 -0.000250561917955 0.0
-0.129409708298 -0.0211018257224 0.0
-0.116494132142 0.0404704340696 0.0
-0.100111592435 0.196585297139 0.0
-0.111203980743 0.179984603466 0.0
-0.18206701728 -0.073635647697 0.0
-0.149756252207 -0.0899202291888 0.0
-0.181969207516 -0.109686142659 0.0
-0.106298794684 0.0494291840727 0.0
-0.119893197631 0.0370016877546 0.0
0.219946420616 -0.151716141672 0.0
0.210129346196 -0.0978360065634 0.0
0.0590710829844 -0.204056430912 0.0
-0.0607765665126 0.23850205808 0.0
-0.0547187853643 0.227646549188 0.0
-0.0666925995283 0.236406344642 0.0
-0.0168938186539 -0.026997042363 0.0
-0.0292849638859 -0.0455422852788 0.0
-0.0326421057302 -0.0376336809791 0.0
-0.0281658066599 0.0157322733091 0.0
-0.0413589388129 0.0189512067879 0.0
-0.0379270538426 0.0270405722136 0.0
-0.166717039832 -0.104459736672 0.0
-0.0883228154258 0.203047428694 0.0
-0.124772643792 -0.0669813560428 0.0
-0.0940935234131 0.06281671634 0.0
-0.204074679145 0.0243285543891 0.0
-0.222328584669 -0.0329678841892 0.0
-0.234950056666 -0.0977015519381 0.0
-0.181531760065 -0.0419013605373 0.0
-0.155286125911 -0.0355513216563 0.0
0.776122692205 0.0029411130235 0.0
-0.00369960692951 0.0670033624578 0.0
-0.00598347127021 -0.0360104037578 0.0
-0.0279390879955 0.00119895769818 0.0
0.0665525843641 0.126787274137 0.0
0.0224203798111 0.150387376919 0.0
-0.183176272228 -0.264898516661 0.0
-0.211300393045 -0.289462149484 0.0
-0.0588420118858 0.122656027523 0.0
-0.0625575459928 0.106835117232 0.0
-0.0856406658303 -0.00811342875117 0.0
-0.0880902220893 -0.0171790660414 0.0
0.422983713335 -0.0904283586593 0.0
0.658216539863 -0.0361642075913 0.0
-0.0423019835237 0.214391069635 0.0
-0.0185606646108 0.151763716487 0.0
-0.00632104483186 -0.0150612888905 0.0
-0.00107586337711 -0.00435933488996 0.0
-0.018814342975 0.00733081115831 0.0
-0.0100520720664 0.00194071343823 0.0
-0.0434182371841 -0.409936680743 0.0
-0.0973038153604 -0.516904338177 0.0
-0.00842476789187 -0.00199223568607 0.0
-0.015562581277 -0.00786170911929 0.0
0.418020585199 0.0500394553666 0.0
0.117571034456 0.124995358176 0.0
-0.00196808431478 0.00830846189092 0.0
-0.00876722999451 0.0205377219498 0.0
-0.0390703606114 0.200052384513 0.0
0.332605083414 -0.0363514418275 0.0
-0.0436131756754 0.0128070236205 0.0
-0.027108735676 -0.0539547457629 0.0
-0.0778791725521 -0.336606679897 0.0
-0.105680356756 -0.458593577526 0.0
-0.0532229799042 0.215783685883 0.0
-0.0130255613268 0.184919854785 0.0
-0.0368771409215 -0.0300255377017 0.0
-0.0249614388774 -0.0171288203285 0.0
-0.0339006895111 0.0364640041936 0.0
-0.019829766412 0.030046359055 0.0
-0.000705282680248 -0.00226892700817 0.0
0.568965217035 -0.062330061161 0.0
-0.00630886243144 0.00170943890646 0.0
-0.0333798859222 0.194289303382 0.0
-0.0505677587384 -0.474941111028 0.0
-0.00480839463022 -0.00149449656777 0.0
0.31066714548 0.0765764880215 0.0
-0.00148863956356 0.0047591541019 0.0
0.324675236111 0.0418957094268 0.0
-0.0318915867166 0.146377057744 0.0
-0.0599734777113 -0.13269621701 0.0
-0.0593959993318 0.00532503620023 0.0
-0.0033601516991 -0.00634748837422 0.0
-0.00880538538649 0.00603507803022 0.0
0.257603769515 -0.202148251802 0.0
-0.076453023515 0.258309911271 0.0
-0.0487668902868 -0.504208850858 0.0
-0.00586744018575 -0.00513312879934 0.0
-0.00880954895881 0.190320056382 0.0
-0.00566822350681 0.00930529849278 0.0
-0.057881204022 -0.225337048749 0.0
-0.0644633162131 0.224659105499 0.0
-0.0537992635461 -0.0465716165215 0.0
-0.0499286002023 0.0409936467376 0.0
-0.0601187185062 0.0833958223037 0.0
-0.128095120271 0.0837279102381 0.0
-0.101172013564 0.169323073708 0.0
-0.125086672479 0.156884865058 0.0
-0.18828312147 -0.148973146261 0.0
-0.114405997815 0.0190528681038 0.0
0.14575876886 0.10805922912 0.0
-0.0410269343293 0.108315121012 0.0
0.0822222999196 0.132850237516 0.0
-0.0450113439503 0.0956919190006 0.0
-0.14784539697 -0.282439971594 0.0
-0.0700512956845 -0.00778195402898 0.0
-0.181557842811 -0.32699245652 0.0
-0.0714018342846 -0.0146768202659 0.0
0.787595858088 -0.00548123374465 0.0
0.543665710767 -0.0205041473508 0.0
-0.00512423297617 0.0825932815323 0.0
-0.0200227969349 0.156586819285 0.0
0.296585278202 0.0723853704696 0.0
0.436043240477 -0.00518860429016 0.0
-0.0262898065293 0.165616737475 0.0
-0.0889243353543 -0.377719064832 0.0
-0.0112489891744 0.0411735774921 0.0
-0.0312119176957 -0.00730952054763 0.0
0.631379807437 0.0199154744377 0.0
-0.0248671139067 -0.203662378723 0.0
-0.00300277565845 0.0244013840257 0.0
-0.0227029427548 -0.00196179555646 0.0
-0.00231451360555 -0.0149540154808 0.0
-0.0108362186029 -0.0334628802939 0.0
-0.0208241495944 0.00140235896327 0.0
-0.0314587465426 0.0058346633399 0.0
-0.0242926699113 -0.060755098607 0.0
-0.0433604009416 0.00799751929897 0.0
0.0226460841693 0.086124165873 0.0
-0.0799034465041 0.169145950535 0.0
-0.161602783527 -0.172354017208 0.0
-0.0983845143904 0.012376324436 0.0
-0.141025781506 0.114647591378 0.0
-0.175711211526 0.0752929563525 0.0
-0.137186348049 0.131735440906 0.0
0.216347640944 -0.198073170748 0.0
-0.0703929789866 0.248113970068 0.0
-0.0640994402843 -0.471183959674 0.0
-0.00916823247082 -0.0150306614795 0.0
-0.0277689082491 0.196007796243 0.0
-0.0175289346122 0.0116145155206 0.0
-0.0136367620311 -0.0112681931566 0.0
-0.0125039905462 0.018476160326 0.0
0.216017625636 0.0345856917429 0.0
0.0969015729317 0.0560842377905 0.0
-0.0476466539464 0.178290677903 0.0
-0.0656146799859 0.18114243115 0.0
-0.116602800118 -0.149547625664 0.0
-0.074151254186 -0.124101407259 0.0
-0.0675097755171 0.0118703432915 0.0
-0.0835582739109 0.0148733972446 0.0
-0.0837133757491 0.189565421429 0.0
-0.222458979412 -0.15025609994 0.0
-0.0984537584334 0.0832538313003 0.0
-0.128595505297 -0.0448656301656 0.0
0.05885157503 -0.347268431147 0.0
-0.0774288350874 0.242604919772 0.0
-0.00835016399154 -0.0102712968972 0.0
-0.0118890120801 0.0122122075705 0.0
-0.204709072082 0.0543080016525 0.0
0.575407369713 0.0052449745427 0.0
0.802698701952 -0.00100200947609 0.0
-0.0137912111882 0.122041293959 0.0
-0.00357515357414 0.0688716157658 0.0
0.375589482657 0.0182166610629 0.0
-0.0293478029145 0.15859334042 0.0
-0.0163967913668 -0.056210390398 0.0
-0.00340218069058 -0.0210741138002 0.0
-0.0379095369812 0.00387894414667 0.0