# vtk DataFile Version 2.0
2D Simulation Python
ASCII
DATASET UNSTRUCTURED_GRID
FIELD FieldData 1
NODES 1 2 int
7905 15488

POINTS 7905 double
0.0 0.0 0.0
1.0 0.0 0.0
1.0 1.0 0.0
0.0 1.0 0.0
0.01249999999997639 0.0 0.0
0.02499999999995297 0.0 0.0
0.03749999999992721 0.0 0.0
0.04999999999989927 0.0 0.0
0.0624999999998716 0.0 0.0
0.07499999999985263 0.0 0.0
0.08749999999983366 0.0 0.0
0.09999999999981467 0.0 0.0
0.1124999999997956 0.0 0.0
0.1249999999997765 0.0 0.0
0.1374999999997401 0.0 0.0
0.1499999999997036 0.0 0.0
0.1624999999996672 0.0 0.0
0.1749999999996308 0.0 0.0
0.1874999999995943 0.0 0.0
0.1999999999995579 0.0 0.0
0.2124999999995214 0.0 0.0
0.224999999999485 0.0 0.0
0.2374999999994485 0.0 0.0
0.2499999999994121 0.0 0.0
0.2624999999993757 0.0 0.0
0.2749999999993393 0.0 0.0
0.2874999999993028 0.0 0.0
0.2999999999992664 0.0 0.0
0.3124999999992299 0.0 0.0
0.3249999999991935 0.0 0.0
0.3374999999991571 0.0 0.0
0.3499999999991207 0.0 0.0
0.3624999999990842 0.0 0.0
0.3749999999990478 0.0 0.0
0.3874999999990113 0.0 0.0
0.3999999999989749 0.0 0.0
0.4124999999989398 0.0 0.0
0.4249999999989048 0.0 0.0
0.4374999999988697 0.0 0.0
0.4499999999988346 0.0 0.0
0.4624999999987995 0.0 0.0
0.4749999999987644 0.0 0.0
0.4874999999987293 0.0 0.0
0.4999999999986943 0.0 0.0
0.5124999999987259 0.0 0.0
0.5249999999987575 0.0 0.0
0.5374999999987891 0.0 0.0
0.5499999999988205 0.0 0.0
0.5624999999988521 0.0 0.0
0.5749999999988837 0.0 0.0
0.5874999999989152 0.0 0.0
0.5999999999989468 0.0 0.0
0.6124999999989797 0.0 0.0
0.6249999999990127 0.0 0.0
0.6374999999990456 0.0 0.0
0.6499999999990784 0.0 0.0
0.6624999999991114 0.0 0.0
0.6749999999991443 0.0 0.0
0.6874999999991771 0.0 0.0
0.69999999999921 0.0 0.0
0.712499999999243 0.0 0.0
0.7249999999992759 0.0 0.0
0.7374999999993088 0.0 0.0
0.7499999999993416 0.0 0.0
0.7624999999993746 0.0 0.0
0.7749999999994075 0.0 0.0
0.7874999999994404 0.0 0.0
0.7999999999994734 0.0 0.0
0.8124999999995063 0.0 0.0
0.8249999999995392 0.0 0.0
0.8374999999995721 0.0 0.0
0.8499999999996051 0.0 0.0
0.862499999999638 0.0 0.0
0.8749999999996709 0.0 0.0
0.8874999999997039 0.0 0.0
0.8999999999997368 0.0 0.0
0.9124999999997697 0.0 0.0
0.9249999999998026 0.0 0.0
0.9374999999998355 0.0 0.0
0.9499999999998684 0.0 0.0
0.9624999999999013 0.0 0.0
0.9749999999999343 0.0 0.0
0.9874999999999672 0.0 0.0
1.0 0.01249999999997639 0.0
1.0 0.02499999999995297 0.0
1.0 0.03749999999992721 0.0
1.0 0.04999999999989927 0.0
1.0 0.0624999999998716 0.0
1.0 0.07499999999985263 0.0
1.0 0.08749999999983366 0.0
1.0 0.09999999999981467 0.0
1.0 0.1124999999997956 0.0
1.0 0.1249999999997765 0.0
1.0 0.1374999999997401 0.0
1.0 0.1499999999997036 0.0
1.0 0.1624999999996672 0.0
1.0 0.1749999999996308 0.0
1.0 0.1874999999995943 0.0
1.0 0.1999999999995579 0.0
1.0 0.2124999999995214 0.0
1.0 0.224999999999485 0.0
1.0 0.2374999999994485 0.0
1.0 0.2499999999994121 0.0
1.0 0.2624999999993757 0.0
1.0 0.2749999999993393 0.0
1.0 0.2874999999993028 0.0
1.0 0.2999999999992664 0.0
1.0 0.3124999999992299 0.0
1.0 0.3249999999991935 0.0
1.0 0.3374999999991571 0.0
1.0 0.3499999999991207 0.0
1.0 0.3624999999990842 0.0
1.0 0.3749999999990478 0.0
1.0 0.3874999999990113 0.0
1.0 0.3999999999989749 0.0
1.0 0.4124999999989398 0.0
1.0 0.4249999999989048 0.0
1.0 0.4374999999988697 0.0
1.0 0.4499999999988346 0.0
1.0 0.4624999999987995 0.0
1.0 0.4749999999987644 0.0
1.0 0.4874999999987293 0.0
1.0 0.4999999999986943 0.0
1.0 0.5124999999987259 0.0
1.0 0.5249999999987575 0.0
1.0 0.5374999999987891 0.0
1.0 0.5499999999988205 0.0
1.0 0.5624999999988521 0.0
1.0 0.5749999999988837 0.0
1.0 0.5874999999989152 0.0
1.0 0.5999999999989468 0.0
1.0 0.6124999999989797 0.0
1.0 0.6249999999990127 0.0
1.0 0.6374999999990456 0.0
1.0 0.6499999999990784 0.0
1.0 0.6624999999991114 0.0
1.0 0.6749999999991443 0.0
1.0 0.6874999999991771 0.0
1.0 0.69999999999921 0.0
1.0 0.712499999999243 0.0
1.0 0.7249999999992759 0.0
1.0 0.7374999999993088 0.0
1.0 0.7499999999993416 0.0
1.0 0.7624999999993746 0.0
1.0 0.7749999999994075 0.0
1.0 0.7874999999994404 0.0
1.0 0.7999999999994734 0.0
1.0 0.8124999999995063 0.0
1.0 0.8249999999995392 0.0
1.0 0.8374999999995721 0.0
1.0 0.8499999999996051 0.0
1.0 0.862499999999638 0.0
1.0 0.8749999999996709 0.0
1.0 0.8874999999997039 0.0
1.0 0.8999999999997368 0.0
1.0 0.9124999999997697 0.0
1.0 0.9249999999998026 0.0
1.0 0.9374999999998355 0.0
1.0 0.9499999999998684 0.0
1.0 0.9624999999999013 0.0
1.0 0.9749999999999343 0.0
1.0 0.9874999999999672 0.0
0.9874999999999439 1.0 0.0
0.9749999999998877 1.0 0.0
0.9624999999998541 1.0 0.0
0.9499999999998356 1.0 0.0
0.9374999999997805 1.0 0.0
0.9249999999996992 1.0 0.0
0.9124999999996414 1.0 0.0
0.8999999999995836 1.0 0.0
0.8874999999996454 1.0 0.0
0.8749999999997078 1.0 0.0
0.8624999999997771 1.0 0.0
0.8499999999998515 1.0 0.0
0.837499999999895 1.0 0.0
0.8249999999999216 1.0 0.0
0.8124999999999571 1.0 0.0
0.7999999999999998 1.0 0.0
0.7875000000000937 1.0 0.0
0.77500000000021 1.0 0.0
0.7625000000002968 1.0 0.0
0.7500000000003858 1.0 0.0
0.7375000000004739 1.0 0.0
0.7250000000005448 1.0 0.0
0.7125000000005861 1.0 0.0
0.7000000000006934 1.0 0.0
0.6875000000008109 1.0 0.0
0.6750000000009306 1.0 0.0
0.6625000000010091 1.0 0.0
0.6500000000010593 1.0 0.0
0.6375000000011386 1.0 0.0
0.6250000000012101 1.0 0.0
0.612500000001312 1.0 0.0
0.6000000000013869 1.0 0.0
0.5875000000014601 1.0 0.0
0.5750000000015277 1.0 0.0
0.5625000000016089 1.0 0.0
0.5500000000016854 1.0 0.0
0.5375000000017889 1.0 0.0
0.5250000000018821 1.0 0.0
0.5125000000019756 1.0 0.0
0.5000000000020587 1.0 0.0
0.4875000000020093 1.0 0.0
0.4750000000019601 1.0 0.0
0.4625000000019108 1.0 0.0
0.4500000000018616 1.0 0.0
0.4375000000018123 1.0 0.0
0.425000000001763 1.0 0.0
0.4125000000017136 1.0 0.0
0.4000000000016644 1.0 0.0
0.3875000000016123 1.0 0.0
0.3750000000015603 1.0 0.0
0.3625000000015083 1.0 0.0
0.3500000000014563 1.0 0.0
0.3375000000014042 1.0 0.0
0.3250000000013522 1.0 0.0
0.3125000000013003 1.0 0.0
0.3000000000012483 1.0 0.0
0.2875000000011962 1.0 0.0
0.2750000000011442 1.0 0.0
0.2625000000010922 1.0 0.0
0.2500000000010403 1.0 0.0
0.2375000000009883 1.0 0.0
0.2250000000009362 1.0 0.0
0.2125000000008842 1.0 0.0
0.2000000000008322 1.0 0.0
0.1875000000007802 1.0 0.0
0.1750000000007281 1.0 0.0
0.1625000000006761 1.0 0.0
0.1500000000006241 1.0 0.0
0.1375000000005721 1.0 0.0
0.12500000000052 1.0 0.0
0.112500000000468 1.0 0.0
0.100000000000416 1.0 0.0
0.08750000000036395 1.0 0.0
0.07500000000031193 1.0 0.0
0.06250000000026001 1.0 0.0
0.05000000000020799 1.0 0.0
0.03750000000015596 1.0 0.0
0.02500000000010394 1.0 0.0
0.01250000000005191 1.0 0.0
0.0 0.9874999999999439 0.0
0.0 0.9749999999998877 0.0
0.0 0.9624999999998541 0.0
0.0 0.9499999999998356 0.0
0.0 0.9374999999997805 0.0
0.0 0.9249999999996992 0.0
0.0 0.9124999999996414 0.0
0.0 0.8999999999995836 0.0
0.0 0.8874999999996454 0.0
0.0 0.8749999999997078 0.0
0.0 0.8624999999997771 0.0
0.0 0.8499999999998515 0.0
0.0 0.837499999999895 0.0
0.0 0.8249999999999216 0.0
0.0 0.8124999999999571 0.0
0.0 0.7999999999999998 0.0
0.0 0.7875000000000937 0.0
0.0 0.77500000000021 0.0
0.0 0.7625000000002968 0.0
0.0 0.7500000000003858 0.0
0.0 0.7375000000004739 0.0
0.0 0.7250000000005448 0.0
0.0 0.7125000000005861 0.0
0.0 0.7000000000006934 0.0
0.0 0.6875000000008109 0.0
0.0 0.6750000000009306 0.0
0.0 0.6625000000010091 0.0
0.0 0.6500000000010593 0.0
0.0 0.6375000000011386 0.0
0.0 0.6250000000012101 0.0
0.0 0.612500000001312 0.0
0.0 0.6000000000013869 0.0
0.0 0.5875000000014601 0.0
0.0 0.5750000000015277 0.0
0.0 0.5625000000016089 0.0
0.0 0.5500000000016854 0.0
0.0 0.5375000000017889 0.0
0.0 0.5250000000018821 0.0
0.0 0.5125000000019756 0.0
0.0 0.5000000000020587 0.0
0.0 0.4875000000020093 0.0
0.0 0.4750000000019601 0.0
0.0 0.4625000000019108 0.0
0.0 0.4500000000018616 0.0
0.0 0.4375000000018123 0.0
0.0 0.425000000001763 0.0
0.0 0.4125000000017136 0.0
0.0 0.4000000000016644 0.0
0.0 0.3875000000016123 0.0
0.0 0.3750000000015603 0.0
0.0 0.3625000000015083 0.0
0.0 0.3500000000014563 0.0
0.0 0.3375000000014042 0.0
0.0 0.3250000000013522 0.0
0.0 0.3125000000013003 0.0
0.0 0.3000000000012483 0.0
0.0 0.2875000000011962 0.0
0.0 0.2750000000011442 0.0
0.0 0.2625000000010922 0.0
0.0 0.2500000000010403 0.0
0.0 0.2375000000009883 0.0
0.0 0.2250000000009362 0.0
0.0 0.2125000000008842 0.0
0.0 0.2000000000008322 0.0
0.0 0.1875000000007802 0.0
0.0 0.1750000000007281 0.0
0.0 0.1625000000006761 0.0
0.0 0.1500000000006241 0.0
0.0 0.1375000000005721 0.0
0.0 0.12500000000052 0.0
0.0 0.112500000000468 0.0
0.0 0.100000000000416 0.0
0.0 0.08750000000036395 0.0
0.0 0.07500000000031193 0.0
0.0 0.06250000000026001 0.0
0.0 0.05000000000020799 0.0
0.0 0.03750000000015596 0.0
0.0 0.02500000000010394 0.0
0.0 0.01250000000005191 0.0
0.499547313951317 0.4984202829398231 0.0
0.7057142553715264 0.7049957919913439 0.0
0.2942617789825218 0.706558362574613 0.0
0.7052750732513358 0.29408370064617073 0.0
0.2941161372558304 0.29425664999463297 0.0
0.49473409022248005 0.7865288457870021 0.0
0.21400675843102512 0.49559804899934157 0.0
0.7879606576561358 0.5053778129282838 0.0
0.505369301426186 0.2119891966328729 0.0
0.8286074034533916 0.8287576993256224 0.0
0.17122528584787128 0.8286011816233976 0.0
0.8287577004551061 0.17139259539200086 0.0
0.17140751986106711 0.17123186221929698 0.0
0.6412438345717256 0.8516520873564006 0.0
0.14868333985619164 0.6419476520576217 0.0
0.36001439100831745 0.8471882363166383 0.0
0.8472916681795735 0.639858398754968 0.0
0.8516551147624887 0.3587551765143301 0.0
0.1529024464427883 0.36006180552290556 0.0
0.3587547979315107 0.148343271772372 0.0
0.6398585806283599 0.15270777331315408 0.0
0.5665851234669081 0.6415505082226679 0.0
0.3688065763014604 0.5781443560211958 0.0
0.6448511073779454 0.4469929790001165 0.0
0.43335085497228876 0.35323599965884955 0.0
0.42653529248703315 0.6555720715037009 0.0
0.6657620768186652 0.5502649260729648 0.0
0.3566111211511165 0.42874186251021185 0.0
0.5447859278293945 0.34262223816401394 0.0
0.4594948214297615 0.8920313032464312 0.0
[...]
POINT_DATA 7905
VECTORS vector double
0.0 0.0 0.0
0.0 0.0 0.0
0.0 0.0 0.0
0.0 0.0 0.0
0.0 0.0 0.0
0.0 0.0 0.0
0.0 0.0 0.0
0.0 0.0 0.0
0.0 0.0 0.0
0.0 0.0 0.0
0.0 0.0 0.0
0.0 0.0 0.0
0.0 0.0 0.0
0.0 0.0 0.0
0.0 0.0 0.0
0.0 0.0 0.0
0.0 0.0 0.0
0.0 0.0 0.0
0.0 0.0 0.0
0.0 0.0 0.0
0.0 0.0 0.0
0.0 0.0 0.0
0.0 0.0 0.0
0.0 0.0 0.0
0.0 0.0 0.0
0.0 0.0 0.0
0.0 0.0 0.0
0.0 0.0 0.0
0.0 0.0 0.0
0.0 0.0 0.0
0.0 0.0 0.0
0.0 0.0 0.0
0.0 0.0 0.0
0.0 0.0 0.0
0.0 0.0 0.0
0.0 0.0 0.0
0.0 0.0 0.0
0.0 0.0 0.0
0.0 0.0 0.0
0.0 0.0 0.0
0.0 0.0 0.0
0.0 0.0 0.0
0.0 0.0 0.0
0.0 0.0 0.0
0.0 0.0 0.0
0.0 0.0 0.0
0.0 0.0 0.0
0.0 0.0 0.0
0.0 0.0 0.0
0.0 0.0 0.0
0.0 0.0 0.0
0.0 0.0 0.0
0.0 0.0 0.0
0.0 0.0 0.0
0.0 0.0 0.0
0.0 0.0 0.0
0.0 0.0 0.0
0.0 0.0 0.0
0.0 0.0 0.0
0.0 0.0 0.0
0.0 0.0 0.0
0.0 0.0 0.0
0.0 0.0 0.0
0.0 0.0 0.0
0.0 0.0 0.0
0.0 0.0 0.0
0.0 0.0 0.0
0.0 0.0 0.0
0.0 0.0 0.0
0.0 0.0 0.0
0.0 0.0 0.0
0.0 0.0 0.0
0.0 0.0 0.0
0.0 0.0 0.0
0.0 0.0 0.0
0.0 0.0 0.0
0.0 0.0 0.0
0.0 0.0 0.0
0.0 0.0 0.0
0.0 0.0 0.0
0.0 0.0 0.0
0.0 0.0 0.0
0.0 0.0 0.0
0.0 0.0 0.0
0.0 0.0 0.0
0.0 0.0 0.0
0.0 0.0 0.0
0.0 0.0 0.0
0.0 0.0 0.0
0.0 0.0 0.0
0.0 0.0 0.0
0.0 0.0 0.0
0.0 0.0 0.0
0.0 0.0 0.0
0.0 0.0 0.0
0.0 0.0 0.0
0.0 0.0 0.0
0.0 0.0 0.0
0.0 0.0 0.0
0.0 0.0 0.0
0.0 0.0 0.0
0.0 0.0 0.0
0.0 0.0 0.0
0.0 0.0 0.0
0.0 0.0 0.0
0.0 0.0 0.0
0.0 0.0 0.0
0.0 0.0 0.0
0.0 0.0 0.0
0.0 0.0 0.0
0.0 0.0 0.0
0.0 0.0 0.0
0.0 0.0 0.0
0.0 0.0 0.0
0.0 0.0 0.0
0.0 0.0 0.0
0.0 0.0 0.0
0.0 0.0 0.0
0.0 0.0 0.0
0.0 0.0 0.0
0.0 0.0 0.0
0.0 0.0 0.0
0.0 0.0 0.0
0.0 0.0 0.0
0.0 0.0 0.0
0.0 0.0 0.0
0.0 0.0 0.0
0.0 0.0 0.0
0.0 0.0 0.0
0.0 0.0 0.0
0.0 0.0 0.0
0.0 0.0 0.0
0.0 0.0 0.0
0.0 0.0 0.0
0.0 0.0 0.0
0.0 0.0 0.0
0.0 0.0 0.0
0.0 0.0 0.0
0.0 0.0 0.0
0.0 0.0 0.0
0.0 0.0 0.0
0.0 0.0 0.0
0.0 0.0 0.0
0.0 0.0 0.0
0.0 0.0 0.0
0.0 0.0 0.0
0.0 0.0 0.0
0.0 0.0 0.0
0.0 0.0 0.0
0.0 0.0 0.0
0.0 0.0 0.0
0.0 0.0 0.0
0.0 0.0 0.0
0.0 0.0 0.0
0.0 0.0 0.0
0.0 0.0 0.0
0.0 0.0 0.0
0.0 0.0 0.0
0.0 0.0 0.0
0.0 0.0 0.0
0.0 0.0 0.0
0.0 0.0 0.0
1.0 0.0 0.0
1.0 0.0 0.0
1.0 0.0 0.0
1.0 0.0 0.0
1.0 0.0 0.0
1.0 0.0 0.0
1.0 0.0 0.0
1.0 0.0 0.0
1.0 0.0 0.0
1.0 0.0 0.0
1.0 0.0 0.0
1.0 0.0 0.0
1.0 0.0 0.0
1.0 0.0 0.0
1.0 0.0 0.0
1.0 0.0 0.0
1.0 0.0 0.0
1.0 0.0 0.0
1.0 0.0 0.0
1.0 0.0 0.0
1.0 0.0 0.0
1.0 0.0 0.0
1.0 0.0 0.0
1.0 0.0 0.0
1.0 0.0 0.0
1.0 0.0 0.0
1.0 0.0 0.0
1.0 0.0 0.0
1.0 0.0 0.0
1.0 0.0 0.0
1.0 0.0 0.0
1.0 0.0 0.0
1.0 0.0 0.0
1.0 0.0 0.0
1.0 0.0 0.0
1.0 0.0 0.0
1.0 0.0 0.0
1.0 0.0 0.0
1.0 0.0 0.0
1.0 0.0 0.0
1.0 0.0 0.0
1.0 0.0 0.0
1.0 0.0 0.0
1.0 0.0 0.0
1.0 0.0 0.0
1.0 0.0 0.0
1.0 0.0 0.0
1.0 0.0 0.0
1.0 0.0 0.0
1.0 0.0 0.0
1.0 0.0 0.0
1.0 0.0 0.0
1.0 0.0 0.0
1.0 0.0 0.0
1.0 0.0 0.0
1.0 0.0 0.0
1.0 0.0 0.0
1.0 0.0 0.0
1.0 0.0 0.0
1.0 0.0 0.0
1.0 0.0 0.0
1.0 0.0 0.0
1.0 0.0 0.0
1.0 0.0 0.0
1.0 0.0 0.0
1.0 0.0 0.0
1.0 0.0 0.0
1.0 0.0 0.0
1.0 0.0 0.0
1.0 0.0 0.0
1.0 0.0 0.0
1.0 0.0 0.0
1.0 0.0 0.0
1.0 0.0 0.0
1.0 0.0 0.0
1.0 0.0 0.0
1.0 0.0 0.0
1.0 0.0 0.0
1.0 0.0 0.0
0.0 0.0 0.0
0.0 0.0 0.0
0.0 0.0 0.0
0.0 0.0 0.0
0.0 0.0 0.0
0.0 0.0 0.0
0.0 0.0 0.0
0.0 0.0 0.0
0.0 0.0 0.0
0.0 0.0 0.0
0.0 0.0 0.0
0.0 0.0 0.0
0.0 0.0 0.0
0.0 0.0 0.0
0.0 0.0 0.0
0.0 0.0 0.0
0.0 0.0 0.0
0.0 0.0 0.0
0.0 0.0 0.0
0.0 0.0 0.0
0.0 0.0 0.0
0.0 0.0 0.0
0.0 0.0 0.0
0.0 0.0 0.0
0.0 0.0 0.0
0.0 0.0 0.0
0.0 0.0 0.0
0.0 0.0 0.0
0.0 0.0 0.0
0.0 0.0 0.0
0.0 0.0 0.0
0.0 0.0 0.0
0.0 0.0 0.0
0.0 0.0 0.0
0.0 0.0 0.0
0.0 0.0 0.0
0.0 0.0 0.0
0.0 0.0 0.0
0.0 0.0 0.0
0.0 0.0 0.0
0.0 0.0 0.0
0.0 0.0 0.0
0.0 0.0 0.0
0.0 0.0 0.0
0.0 0.0 0.0
0.0 0.0 0.0
0.0 0.0 0.0
0.0 0.0 0.0
0.0 0.0 0.0
0.0 0.0 0.0
0.0 0.0 0.0
0.0 0.0 0.0
0.0 0.0 0.0
0.0 0.0 0.0
0.0 0.0 0.0
0.0 0.0 0.0
0.0 0.0 0.0
0.0 0.0 0.0
0.0 0.0 0.0
0.0 0.0 0.0
0.0 0.0 0.0
0.0 0.0 0.0
0.0 0.0 0.0
0.0 0.0 0.0
0.0 0.0 0.0
0.0 0.0 0.0
0.0 0.0 0.0
0.0 0.0 0.0
0.0 0.0 0.0
0.0 0.0 0.0
0.0 0.0 0.0
0.0 0.0 0.0
0.0 0.0 0.0
0.0 0.0 0.0
0.0 0.0 0.0
0.0 0.0 0.0
0.0 0.0 0.0
0.0 0.0 0.0
0.0 0.0 0.0
-0.212362803994 0.0577492440469 0.0
-0.109814139449 -0.158587286317 0.0
-0.0577702079325 0.232882197936 0.0
-0.116409197733 -0.079430899739 0.0
-0.0953546834413 0.0688669381704 0.0
0.08048464617 0.113267874991 0.0
-0.0749375262455 0.17110847429 0.0
-0.18744394312 -0.250518984491 0.0
-0.114326347911 -0.00140597061275 0.0
0.0414309448157 -0.318673631475 0.0
-0.0579906950646 0.245285744527 0.0
-0.02273235138 -0.0251910780176 0.0
-0.0289035305258 0.0271254490322 0.0
0.280996782313 -0.00805602642308 0.0
-0.0387447474849 0.216625703219 0.0
0.114525362172 0.141089976768 0.0
-0.168987658904 -0.402905186105 0.0
-0.0572395456266 -0.102520773893 0.0
-0.0421022391155 0.0929915675883 0.0
-0.0701895917792 0.0174670108001 0.0
-0.0700006249687 -0.0214207397466 0.0
-0.146057940368 0.0379735637226 0.0
-0.130116485764 0.181173428028 0.0
-0.231748322863 -0.102363001041 0.0
-0.165655262558 0.0499756300476 0.0
-0.0977455981424 0.170645196095 0.0
-0.24560472659 -0.133999639336 0.0
-0.148697499023 0.115616466651 0.0
-0.183496705143 -0.0158533665718 0.0
0.386160859534 0.0646958318011 0.0
-0.0243624700011 0.116931969352 0.0
-0.0802742483506 -0.241154022545 0.0
-0.0792499228129 -0.00392613759938 0.0
0.44915886819 -0.0629041314538 0.0
-0.0285309019677 0.210603952791 0.0
-0.0132318104146 -0.0313181175207 0.0
-0.0351863408256 0.0112358818349 0.0
-0.108554020589 -0.493934844852 0.0
0.161547142591 0.119135367069 0.0
-0.0312982291963 -0.0132321791723 0.0
-0.0163973034056 0.0412711223409 0.0
0.0580039797778 0.0164724727978 0.0
-0.0670331294147 0.222605927775 0.0
-0.15283232089 -0.146920272443 0.0
-0.123901436734 0.0351815637348 0.0
-0.00129575198881 0.185241841045 0.0
-0.221603781994 -0.266366448615 0.0
-0.0935044224979 0.118982584195 0.0
-0.129365739419 -0.0369980825271 0.0
0.0741768397346 -0.373336552575 0.0
-0.0808840143789 0.257433890312 0.0
-0.00226050596503 -0.00459901509049 0.0
-0.00531328024579 0.00682707425155 0.0
0.538790067989 0.01645528734 0.0
-0.0148902386642 0.135051022348 0.0
-0.0299701100062 -0.0997435709479 0.0
-0.0527792730096 0.00422856517671 0.0
-0.133512299108 -0.342122823109 0.0
-0.018097324136 0.216114428342 0.0
-0.0679857150982 -0.0441314837724 0.0
-0.0567313871989 0.0658955464264 0.0
0.0805975148215 -0.131101900014 0.0
-0.0520154844266 0.250627066386 0.0
-0.0612687698874 -0.0711410503933 0.0
-0.0665752330239 0.0375574998214 0.0
-0.165220732925 0.108811136111 0.0
-0.228949764666 -0.0161701884539 0.0
-0.172531649253 0.125235323726 0.0
-0.2237842484 -0.0187813969645 0.0
-0.18038512724 -0.0828476897899 0.0
-0.0862201667073 0.210285780794 0.0
-0.17885610644 -0.0763741144935 0.0
-0.130475378892 0.0823528888225 0.0
0.63099973285 -0.00831761783329 0.0
-0.0110619149644 0.139045720679 0.0
-0.011450230184 -0.0431799790313 0.0
-0.0373989489578 0.00517565446311 0.0
-0.0635058631475 -0.305493867917 0.0
-0.0380874621451 -0.00673853915367 0.0
0.424114581835 0.0542125273638 0.0
-0.0116245860226 0.0574497449268 0.0
0.413009464591 -0.114253597939 0.0
-0.0480674582367 0.231518377995 0.0
-0.00360039645176 -0.00943663808103 0.0
-0.0141717209764 0.00733088120819 0.0
-0.0764957907639 -0.540923788618 0.0
-0.00913966453686 -0.00694334717206 0.0
0.106844320622 0.136586449416 0.0
-0.00682691867469 0.0159585058597 0.0
-0.0598441913755 0.118145912902 0.0
-0.120004911081 0.169559081473 0.0
-0.23269496694 -0.188766531469 0.0
-0.149801498494 0.00522366349922 0.0
0.219128622017 0.0563501522891 0.0
-0.048355271502 0.189271676808 0.0
-0.105735309895 -0.184341600776 0.0
-0.0880882821297 0.00892064765233 0.0
0.0998072722198 0.135131446543 0.0
-0.0581958709937 0.131570816357 0.0
-0.186111515921 -0.32521395549 0.0
-0.0923569419313 -0.0159859435621 0.0
-0.19682708078 0.058345319293 0.0
-0.197616193878 0.0171967078886 0.0
-0.204774916558 -0.0196252641352 0.0
-0.213038498119 0.0199558977425 0.0
-0.000328169322976 -0.00215233943006 0.0
-0.000554260262852 -0.00178820348356 0.0
-0.00377263617118 0.00279152233689 0.0
-0.00107627090061 0.00209842662496 0.0
0.373232584194 -0.149655994684 0.0
0.0644221622858 -0.378832510016 0.0
-0.0682713588324 0.266243013798 0.0
-0.0622355554549 0.281681054485 0.0
-0.00217176850864 -0.00232591929061 0.0
-0.00137193208913 0.00395473492485 0.0
-0.0525162062408 -0.524845613628 0.0
0.114089971896 0.150951525425 0.0
-0.179447919514 0.0188647305473 0.0
-0.182769273897 0.0545949907248 0.0
-0.0820320473825 0.149395206594 0.0
-0.0279940020776 0.154468859615 0.0
-0.0598071671652 0.179608877468 0.0
-0.246133993578 -0.167927014281 0.0
-0.238710846389 -0.223116138056 0.0
-0.239305128977 -0.185631950257 0.0
-0.134615291681 0.142964259997 0.0
-0.109947067133 0.148740360977 0.0
-0.12326829673 0.124275447775 0.0
-0.165027379996 -0.00505636948829 0.0
-0.144681821212 -0.0155492040314 0.0
-0.159190519989 -0.0324995200057 0.0
-0.153545120186 0.15446271379 0.0
-0.17667294959 0.121628639113 0.0
-0.149849594164 0.151412542032 0.0
-0.12703520912 0.146984402198 0.0
-0.120545112413 0.176617184366 0.0
-0.243983781665 -0.0656335312337 0.0
-0.235861043797 -0.0186005846231 0.0
-0.229923414695 -0.0590434909547 0.0
-0.24722782051 -0.116176637486 0.0
-0.241458832421 -0.0805706564605 0.0
0.00647045524201 0.118874392608 0.0
0.0285179794429 0.147702662977 0.0
-0.0969623034706 0.175004090133 0.0
-0.0873842993871 0.149794006076 0.0
-0.21597101578 -0.222010310927 0.0
-0.221312137499 -0.269688181862 0.0
-0.133754639804 0.00161427764546 0.0
-0.123927753596 -0.0150275511453 0.0
-0.0563390059727 0.228226385999 0.0
-0.0599119463154 0.241767310917 0.0
-0.0473280817551 0.239867166679 0.0
0.138851941448 0.000184641263512 0.0
0.055004912821 -0.0578875123912 0.0
0.183982521255 -0.0541002612419 0.0
-0.0908027266131 0.025911232273 0.0
-0.0901169213769 0.0393988680285 0.0
-0.0707202397255 0.026922720767 0.0
-0.0986138103927 -0.130950590642 0.0
-0.0985725991552 -0.106208673232 0.0
-0.0611931049191 -0.0881123425918 0.0
-0.0554926082992 0.243857167059 0.0
-0.069881557242 0.235100513355 0.0
-0.0295250127128 -0.145330811468 0.0
-0.0519671517305 -0.074331813623 0.0
-0.0828438318156 0.0531705125613 0.0
-0.106229463998 0.0549703767257 0.0
-0.0918054079926 -0.0810175600898 0.0
-0.131033068018 -0.10459798501 0.0
-0.176401266709 -0.40343668934 0.0
-0.186983858322 -0.312838630323 0.0
-0.203386258589 -0.354653221052 0.0
0.0356241465071 0.180071400543 0.0
-0.00824984615664 0.203798376822 0.0
0.0410730726741 0.172807725399 0.0
-0.070512326743 -0.0322209637289 0.0
-0.0964698335932 -0.0459292145253 0.0
-0.0933540983793 -0.0310007138433 0.0
-0.0503081663358 0.0806328549697 0.0
-0.0738581768176 0.0898227921399 0.0
-0.0648276809054 0.106000456431 0.0
-0.174222516018 0.0923554738004 0.0
-0.161576569986 0.0834449870426 0.0
0.656343085069 0.0211475677644 0.0
0.683412476245 0.0166274058657 0.0
-0.0060818542098 0.0587969102325 0.0
-0.0062259165991 0.072494522215 0.0
-0.0231726728803 -0.148305441543 0.0
-0.0188830363329 -0.109844568781 0.0
-0.0399018696062 -0.0018963081669 0.0
-0.0429906001245 -0.000154582996885 0.0
-0.0212402970009 -0.170066109286 0.0
-0.0721909468519 -0.279531494223 0.0
-0.0314615789028 -0.00261737019493 0.0
-0.0503454409557 -0.00654262688212 0.0
0.672717427808 0.0200488127233 0.0
0.395909815681 0.0596657764514 0.0
-0.00425939691807 0.0405602233066 0.0
-0.0167525349618 0.0801624965165 0.0
-0.232638452581 -0.147500696986 0.0
-0.159782958047 0.0232502459996 0.0
-0.178525222045 -0.217998435312 0.0
-0.121946402097 -0.240641295201 0.0
-0.0422204652233 0.216143591928 0.0
-0.0399643529964 0.22967902452 0.0
-0.122666368631 -0.0611755621713 0.0
-0.092445412319 -0.0620497653378 0.0
-0.0958671981919 0.089150691691 0.0
-0.0776825034638 0.0700323512243 0.0
-0.0904893325981 0.192754926773 0.0
-0.106735347191 0.200439882296 0.0
-0.139027097129 0.0992233985788 0.0
-0.147529350313 0.0702965644751 0.0
-0.186483218688 0.0946430469885 0.0
-0.161122649886 0.123972400226 0.0
-0.198764224272 0.0796096142947 0.0
-0.195092202545 0.0925245426214 0.0
-0.223702312156 0.0215610513236 0.0
-0.222181285966 0.0291453207708 0.0
-0.131914867452 -0.342440527288 0.0
-0.117218077113 -0.384537147289 0.0
-0.0685850321239 -0.01215341317 0.0
-0.0526317689483 -0.012802834948 0.0
0.218415227307 0.102722496896 0.0
0.240121849301 0.0972430988609 0.0
-0.0338946654958 0.104721856442 0.0
-0.0242713960144 0.077396149712 0.0
0.73511339037 -0.0169734536456 0.0
0.690270026129 -0.0286436531235 0.0
-0.00765539010751 0.117680363372 0.0
-0.0120026095493 0.138691353339 0.0
-0.00266865260591 -0.0134685453775 0.0
-0.00206406133849 -0.00888423844506 0.0
-0.0226320720527 0.00331814821824 0.0
-0.0176608524615 0.00370568482837 0.0
-0.0429204355861 -0.37971097978 0.0
-0.0367841092399 -0.307338171503 0.0
-0.0149593887618 -0.00441532006482 0.0
-0.0214258106399 -0.00437006176863 0.0
0.455421165218 0.0463601200552 0.0
0.532893030938 0.0354807893774 0.0
-0.00369094904303 0.0178896222928 0.0
-0.00417858247766 0.0251731939847 0.0
0.467140356448 0.0355190403724 0.0
0.743118168326 0.00768328681849 0.0
-0.0188269327631 0.127663296183 0.0
-0.00457635723876 0.0761275674635 0.0
-0.0479878118022 -0.152555301132 0.0
-0.0114171542439 -0.0680231577393 0.0
-0.0597529037065 0.00156723355985 0.0
-0.0386079288336 0.00158318415812 0.0
-0.145265321295 -0.453875498708 0.0
-0.138326740531 -0.447627527322 0.0
0.121805609914 0.136801681659 0.0
0.0227750416049 0.184586707511 0.0
-0.0500736862456 -0.0195489265931 0.0
-0.0469943659699 -0.02763261117 0.0
-0.0295097921811 0.0670394939199 0.0
-0.0357611337063 0.0565780642509 0.0
0.148086599752 0.0822858425374 0.0
0.274450971298 0.0665406778221 0.0
0.178660076715 0.0980638695136 0.0
-0.0606131122123 0.183689446555 0.0
-0.0387422724125 0.160065660935 0.0
-0.0514051451289 0.154833972143 0.0
-0.144392329209 -0.220189840669 0.0
-0.0990908167238 -0.210785751873 0.0
-0.144728112359 -0.264768608601 0.0
-0.101254183592 0.00575131479359 0.0
-0.080537806597 0.00182264848115 0.0
-0.0920329177297 -0.00369675881231 0.0
-0.15931755581 -0.0128265170112 0.0
-0.103643695241 -0.0347492000645 0.0
-0.0899004528439 0.030182996916 0.0
-0.0884529028591 0.219913223844 0.0
-0.10645815494 0.20432948487 0.0
-0.206218510467 -0.0914047459405 0.0
-0.172256347192 -0.10982314147 0.0
-0.203283783959 -0.132251335071 0.0
-0.128650294263 0.0596958219072 0.0
-0.144610484358 0.0437641505538 0.0
0.231929137699 -0.157346220989 0.0
0.226582402832 -0.105336246721 0.0
0.0760815753821 -0.212620930379 0.0
-0.0524076957557 0.251073493836 0.0
-0.0452121132465 0.24593748549 0.0
-0.0533608255355 0.252495166503 0.0
-0.019347986828 -0.0314245514305 0.0
-0.0342425276639 -0.0536991141152 0.0
-0.0380637557135 -0.044921241373 0.0
-0.0342618309046 0.0197027403518 0.0
-0.0505764860729 0.023613592333 0.0
-0.046664092411 0.0335153961614 0.0
-0.143986509253 -0.120946422107 0.0
-0.0697260229496 0.223113596322 0.0
-0.146758817239 -0.083023345674 0.0
-0.113677051075 0.0764875439619 0.0
-0.192212104394 0.0148631866692 0.0
-0.21205642292 -0.0473579708099 0.0
-0.226083866721 -0.116405739409 0.0
-0.207409539094 -0.0545048868157 0.0
-0.181973489148 -0.0464471005942 0.0
0.784409435517 0.000896483255076 0.0
-0.00339769838323 0.0767907942782 0.0
-0.00693754215567 -0.0402993005244 0.0
-0.0329009789337 0.00230283862896 0.0
0.0974039470622 0.129334100975 0.0
0.052919896646 0.156568739345 0.0
-0.189130347142 -0.295476782222 0.0
-0.211243344439 -0.318310801422 0.0
-0.0659789572255 0.147330539989 0.0
-0.0723563919276 0.12935196669 0.0
-0.103972808698 -0.0113770734238 0.0
-0.106528696737 -0.0227034335706 0.0
0.429331402504 -0.0937864710781 0.0
0.659638675671 -0.0382891403225 0.0
-0.0382167926455 0.22200863857 0.0
-0.0175480379525 0.154188449923 0.0
-0.00705363244573 -0.0169440103059 0.0
-0.00112075822792 -0.00473969294338 0.0
-0.0224513093888 0.00954230068474 0.0
-0.0116384792788 0.00321761438063 0.0
-0.0419620516019 -0.419337534558 0.0
-0.0919218728129 -0.528834954218 0.0
-0.00882238674092 -0.00342659545852 0.0
-0.0168249386201 -0.0100749249942 0.0
0.418324054549 0.0529808848789 0.0
0.12285418899 0.130204993164 0.0
-0.00243055935941 0.0108009630848 0.0
-0.010855733434 0.025532330159 0.0
-0.0329733130895 0.219815260292 0.0
0.348850095482 -0.042729793624 0.0
-0.0530198086465 0.0160888335632 0.0
-0.0316921689846 -0.0632406479316 0.0
-0.0616518965967 -0.347627797978 0.0
-0.0947771575396 -0.469810255644 0.0
-0.0367352327927 0.229240110588 0.0
-0.0012131102975 0.193776073388 0.0
-0.0428641188008 -0.0364948437521 0.0
-0.0281319390147 -0.0209946422165 0.0
-0.0418678802989 0.0450659761486 0.0
-0.0245195024858 0.0371791598731 0.0
-0.000634750031336 -0.00288758347308 0.0
0.569945299838 -0.0642923556698 0.0
-0.00722535041043 0.00295800628226 0.0
-0.0328409595166 0.195412079308 0.0
-0.049149118003 -0.482012744431 0.0
-0.00483289050285 -0.0027701240996 0.0
0.309881357615 0.0788396674526 0.0
-0.00178766866762 0.00658995710036 0.0
0.347477163271 0.0385156727752 0.0
-0.0314512715675 0.170541030649 0.0
-0.0670319018704 -0.152737489676 0.0
-0.0719550882479 0.00644560444636 0.0
-0.00335285064782 -0.0073911704052 0.0
-0.0104047419436 0.00799871913009 0.0
0.261590182068 -0.204827170089 0.0
-0.0743383538521 0.26119729201 0.0
-0.0441962347653 -0.509729934065 0.0
-0.00582054801573 -0.00656893975517 0.0
-0.00751707786632 0.193445296628 0.0
-0.00685150161936 0.0118743792219 0.0
-0.0372103214785 -0.23749361982 0.0
-0.0462890802604 0.242750314934 0.0
-0.0635504720646 -0.0566495408889 0.0
-0.0615723321673 0.0506057729114 0.0
-0.0306001073961 0.0766027313551 0.0
-0.10346031732 0.0779045434668 0.0
-0.102141555536 0.196097786998 0.0
-0.127333949179 0.180004681752 0.0
-0.205673684757 -0.175353995531 0.0
-0.138968170141 0.0217682633733 0.0
0.173479414688 0.111291502382 0.0
-0.0465874975244 0.130709917814 0.0
0.11034113759 0.138994871961 0.0
-0.0526366283984 0.116334323497 0.0
-0.152488838827 -0.312288881469 0.0
-0.0844302120389 -0.0106020490096 0.0
-0.181670521582 -0.356114100458 0.0
-0.0858165248625 -0.0192463370044 0.0
0.792445275751 -0.00723470243851 0.0
0.554072062363 -0.0242453191499 0.0
-0.00443424574315 0.0896542176223 0.0
-0.0170106528453 0.171321447753 0.0
0.308083576714 0.0776703145662 0.0
0.451969267602 -0.0100560969876 0.0
-0.0229093205658 0.185642349778 0.0
-0.0871726817098 -0.398618089588 0.0
-0.0138160966653 0.0508887184129 0.0
-0.0356130435433 -0.00972068520865 0.0
0.637558243262 0.0233262808477 0.0
-0.0248631329434 -0.217526353249 0.0
-0.00368450461054 0.0304355590272 0.0
-0.0256722636677 -0.0033011395251 0.0
-0.00265836846839 -0.0156792576901 0.0
-0.0126720388172 -0.0389617783779 0.0
-0.0244688889598 0.00237834137999 0.0
-0.0376734325833 0.00767324869524 0.0
-0.0282765617556 -0.071041766976 0.0
-0.0524062061953 0.0101977355956 0.0
0.0534297510783 0.0803907949533 0.0
-0.0810797639231 0.197362288321 0.0
-0.176763227901 -0.200419523938 0.0
-0.120216691503 0.014038572435 0.0
-0.120660905419 0.11452929251 0.0
-0.16006580709 0.0709511655686 0.0
-0.146181918602 0.152308164378 0.0
0.224451607561 -0.202023637859 0.0
-0.0646232381532 0.255534861728 0.0
-0.0557964540863 -0.478708323689 0.0
-0.0100654139413 -0.0172928653837 0.0
-0.0214719085664 0.202181399173 0.0
-0.0211497848795 0.0146946395619 0.0
-0.0147132010718 -0.0137208407063 0.0
-0.0153628205881 0.0229996691708 0.0
0.241083955293 0.0283050718419 0.0
0.125771706728 0.0489920597676 0.0
-0.04476932209 0.204869973289 0.0
-0.0635150418978 0.209410816649 0.0
-0.130549350972 -0.174835570015 0.0
-0.0841557597843 -0.144855004759 0.0
-0.0825048184528 0.014444175797 0.0
-0.102387148289 0.0177019205198 0.0
-0.0606556786851 0.20426026837 0.0
-0.208086477582 -0.17019383041 0.0
-0.116535958694 0.100841756538 0.0
-0.152616746172 -0.0570758873237 0.0
0.0661239480143 -0.351569336813 0.0
-0.0729078412141 0.247818965542 0.0
-0.00879610959222 -0.0121424898006 0.0
-0.014390877221 0.0153976633843 0.0
-0.200210248158 0.0501781368706 0.0
0.588887193067 0.00196013773779 0.0
0.808890860072 -0.00319618192545 0.0
-0.012478339853 0.139679036703 0.0
-0.00311559723786 0.0765543494139 0.0
0.395447046721 0.0135351320066 0.0
-0.0270750675361 0.181515105819 0.0
-0.0189312843344 -0.0657394187032 0.0
-0.00398962571865 -0.0224375383029 0.0
-0.0453708135762 0.0052722263979 0.0
-0.0273953048224 0.00220574784123 0.0