# vtk DataFile Version 2.0
2D Simulation Python
ASCII
DATASET UNSTRUCTURED_GRID
FIELD FieldData 1
NODES 1 2 int
7905 15488

POINTS 7905 double
0.0 0.0 0.0
1.0 0.0 0.0
1.0 1.0 0.0
0.0 1.0 0.0
0.01249999999997639 0.0 0.0
0.02499999999995297 0.0 0.0
0.03749999999992721 0.0 0.0
0.04999999999989927 0.0 0.0
0.0624999999998716 0.0 0.0
0.07499999999985263 0.0 0.0
0.08749999999983366 0.0 0.0
0.09999999999981467 0.0 0.0
0.1124999999997956 0.0 0.0
0.1249999999997765 0.0 0.0
0.1374999999997401 0.0 0.0
0.1499999999997036 0.0 0.0
0.1624999999996672 0.0 0.0
0.1749999999996308 0.0 0.0
0.1874999999995943 0.0 0.0
0.1999999999995579 0.0 0.0
0.2124999999995214 0.0 0.0
0.224999999999485 0.0 0.0
0.2374999999994485 0.0 0.0
0.2499999999994121 0.0 0.0
0.2624999999993757 0.0 0.0
0.2749999999993393 0.0 0.0
0.2874999999993028 0.0 0.0
0.2999999999992664 0.0 0.0
0.3124999999992299 0.0 0.0
0.3249999999991935 0.0 0.0
0.3374999999991571 0.0 0.0
0.3499999999991207 0.0 0.0
0.3624999999990842 0.0 0.0
0.3749999999990478 0.0 0.0
0.3874999999990113 0.0 0.0
0.3999999999989749 0.0 0.0
0.4124999999989398 0.0 0.0
0.4249999999989048 0.0 0.0
0.4374999999988697 0.0 0.0
0.4499999999988346 0.0 0.0
0.4624999999987995 0.0 0.0
0.4749999999987644 0.0 0.0
0.4874999999987293 0.0 0.0
0.4999999999986943 0.0 0.0
0.5124999999987259 0.0 0.0
0.5249999999987575 0.0 0.0
0.5374999999987891 0.0 0.0
0.5499999999988205 0.0 0.0
0.5624999999988521 0.0 0.0
0.5749999999988837 0.0 0.0
0.5874999999989152 0.0 0.0
0.5999999999989468 0.0 0.0
0.6124999999989797 0.0 0.0
0.6249999999990127 0.0 0.0
0.6374999999990456 0.0 0.0
0.6499999999990784 0.0 0.0
0.6624999999991114 0.0 0.0
0.6749999999991443 0.0 0.0
0.6874999999991771 0.0 0.0
0.69999999999921 0.0 0.0
0.712499999999243 0.0 0.0
0.7249999999992759 0.0 0.0
0.7374999999993088 0.0 0.0
0.7499999999993416 0.0 0.0
0.7624999999993746 0.0 0.0
0.7749999999994075 0.0 0.0
0.7874999999994404 0.0 0.0
0.7999999999994734 0.0 0.0
0.8124999999995063 0.0 0.0
0.8249999999995392 0.0 0.0
0.8374999999995721 0.0 0.0
0.8499999999996051 0.0 0.0
0.862499999999638 0.0 0.0
0.8749999999996709 0.0 0.0
0.8874999999997039 0.0 0.0
0.8999999999997368 0.0 0.0
0.9124999999997697 0.0 0.0
0.9249999999998026 0.0 0.0
0.9374999999998355 0.0 0.0
0.9499999999998684 0.0 0.0
0.9624999999999013 0.0 0.0
0.9749999999999343 0.0 0.0
0.9874999999999672 0.0 0.0
1.0 0.01249999999997639 0.0
1.0 0.02499999999995297 0.0
1.0 0.03749999999992721 0.0
1.0 0.04999999999989927 0.0
1.0 0.0624999999998716 0.0
1.0 0.07499999999985263 0.0
1.0 0.08749999999983366 0.0
1.0 0.09999999999981467 0.0
1.0 0.1124999999997956 0.0
1.0 0.1249999999997765 0.0
1.0 0.1374999999997401 0.0
1.0 0.1499999999997036 0.0
1.0 0.1624999999996672 0.0
1.0 0.1749999999996308 0.0
1.0 0.1874999999995943 0.0
1.0 0.1999999999995579 0.0
1.0 0.2124999999995214 0.0
1.0 0.224999999999485 0.0
1.0 0.2374999999994485 0.0
1.0 0.2499999999994121 0.0
1.0 0.2624999999993757 0.0
1.0 0.2749999999993393 0.0
1.0 0.2874999999993028 0.0
1.0 0.2999999999992664 0.0
1.0 0.3124999999992299 0.0
1.0 0.3249999999991935 0.0
1.0 0.3374999999991571 0.0
1.0 0.3499999999991207 0.0
1.0 0.3624999999990842 0.0
1.0 0.3749999999990478 0.0
1.0 0.3874999999990113 0.0
1.0 0.3999999999989749 0.0
1.0 0.4124999999989398 0.0
1.0 0.4249999999989048 0.0
1.0 0.4374999999988697 0.0
1.0 0.4499999999988346 0.0
1.0 0.4624999999987995 0.0
1.0 0.4749999999987644 0.0
1.0 0.4874999999987293 0.0
1.0 0.4999999999986943 0.0
1.0 0.5124999999987259 0.0
1.0 0.5249999999987575 0.0
1.0 0.5374999999987891 0.0
1.0 0.5499999999988205 0.0
1.0 0.5624999999988521 0.0
1.0 0.5749999999988837 0.0
1.0 0.5874999999989152 0.0
1.0 0.5999999999989468 0.0
1.0 0.6124999999989797 0.0
1.0 0.6249999999990127 0.0
1.0 0.6374999999990456 0.0
1.0 0.6499999999990784 0.0
1.0 0.6624999999991114 0.0
1.0 0.6749999999991443 0.0
1.0 0.6874999999991771 0.0
1.0 0.69999999999921 0.0
1.0 0.712499999999243 0.0
1.0 0.7249999999992759 0.0
1.0 0.7374999999993088 0.0
1.0 0.7499999999993416 0.0
1.0 0.7624999999993746 0.0
1.0 0.7749999999994075 0.0
1.0 0.7874999999994404 0.0
1.0 0.7999999999994734 0.0
1.0 0.8124999999995063 0.0
1.0 0.8249999999995392 0.0
1.0 0.8374999999995721 0.0
1.0 0.8499999999996051 0.0
1.0 0.862499999999638 0.0
1.0 0.8749999999996709 0.0
1.0 0.8874999999997039 0.0
1.0 0.8999999999997368 0.0
1.0 0.9124999999997697 0.0
1.0 0.9249999999998026 0.0
1.0 0.9374999999998355 0.0
1.0 0.9499999999998684 0.0
1.0 0.9624999999999013 0.0
1.0 0.9749999999999343 0.0
1.0 0.9874999999999672 0.0
0.9874999999999439 1.0 0.0
0.9749999999998877 1.0 0.0
0.9624999999998541 1.0 0.0
0.9499999999998356 1.0 0.0
0.9374999999997805 1.0 0.0
0.9249999999996992 1.0 0.0
0.9124999999996414 1.0 0.0
0.8999999999995836 1.0 0.0
0.8874999999996454 1.0 0.0
0.8749999999997078 1.0 0.0
0.8624999999997771 1.0 0.0
0.8499999999998515 1.0 0.0
0.837499999999895 1.0 0.0
0.8249999999999216 1.0 0.0
0.8124999999999571 1.0 0.0
0.7999999999999998 1.0 0.0
0.7875000000000937 1.0 0.0
0.77500000000021 1.0 0.0
0.7625000000002968 1.0 0.0
0.7500000000003858 1.0 0.0
0.7375000000004739 1.0 0.0
0.7250000000005448 1.0 0.0
0.7125000000005861 1.0 0.0
0.7000000000006934 1.0 0.0
0.6875000000008109 1.0 0.0
0.6750000000009306 1.0 0.0
0.6625000000010091 1.0 0.0
0.6500000000010593 1.0 0.0
0.6375000000011386 1.0 0.0
0.6250000000012101 1.0 0.0
0.612500000001312 1.0 0.0
0.6000000000013869 1.0 0.0
0.5875000000014601 1.0 0.0
0.5750000000015277 1.0 0.0
0.5625000000016089 1.0 0.0
0.5500000000016854 1.0 0.0
0.5375000000017889 1.0 0.0
0.5250000000018821 1.0 0.0
0.5125000000019756 1.0 0.0
0.5000000000020587 1.0 0.0
0.4875000000020093 1.0 0.0
0.4750000000019601 1.0 0.0
0.4625000000019108 1.0 0.0
0.4500000000018616 1.0 0.0
0.4375000000018123 1.0 0.0
0.425000000001763 1.0 0.0
0.4125000000017136 1.0 0.0
0.4000000000016644 1.0 0.0
0.3875000000016123 1.0 0.0
0.3750000000015603 1.0 0.0
0.3625000000015083 1.0 0.0
0.3500000000014563 1.0 0.0
0.3375000000014042 1.0 0.0
0.3250000000013522 1.0 0.0
0.3125000000013003 1.0 0.0
0.3000000000012483 1.0 0.0
0.2875000000011962 1.0 0.0
0.2750000000011442 1.0 0.0
0.2625000000010922 1.0 0.0
0.2500000000010403 1.0 0.0
0.2375000000009883 1.0 0.0
0.2250000000009362 1.0 0.0
0.2125000000008842 1.0 0.0
0.2000000000008322 1.0 0.0
0.1875000000007802 1.0 0.0
0.1750000000007281 1.0 0.0
0.1625000000006761 1.0 0.0
0.1500000000006241 1.0 0.0
0.1375000000005721 1.0 0.0
0.12500000000052 1.0 0.0
0.112500000000468 1.0 0.0
0.100000000000416 1.0 0.0
0.08750000000036395 1.0 0.0
0.07500000000031193 1.0 0.0
0.06250000000026001 1.0 0.0
0.05000000000020799 1.0 0.0
0.03750000000015596 1.0 0.0
0.02500000000010394 1.0 0.0
0.01250000000005191 1.0 0.0
0.0 0.9874999999999439 0.0
0.0 0.9749999999998877 0.0
0.0 0.9624999999998541 0.0
0.0 0.9499999999998356 0.0
0.0 0.9374999999997805 0.0
0.0 0.9249999999996992 0.0
0.0 0.9124999999996414 0.0
0.0 0.8999999999995836 0.0
0.0 0.8874999999996454 0.0
0.0 0.8749999999997078 0.0
0.0 0.8624999999997771 0.0
0.0 0.8499999999998515 0.0
0.0 0.837499999999895 0.0
0.0 0.8249999999999216 0.0
0.0 0.8124999999999571 0.0
0.0 0.7999999999999998 0.0
0.0 0.7875000000000937 0.0
0.0 0.77500000000021 0.0
0.0 0.7625000000002968 0.0
0.0 0.7500000000003858 0.0
0.0 0.7375000000004739 0.0
0.0 0.7250000000005448 0.0
0.0 0.7125000000005861 0.0
0.0 0.7000000000006934 0.0
0.0 0.6875000000008109 0.0
0.0 0.6750000000009306 0.0
0.0 0.6625000000010091 0.0
0.0 0.6500000000010593 0.0
0.0 0.6375000000011386 0.0
0.0 0.6250000000012101 0.0
0.0 0.612500000001312 0.0
0.0 0.6000000000013869 0.0
0.0 0.5875000000014601 0.0
0.0 0.5750000000015277 0.0
0.0 0.5625000000016089 0.0
0.0 0.5500000000016854 0.0
0.0 0.5375000000017889 0.0
0.0 0.5250000000018821 0.0
0.0 0.5125000000019756 0.0
0.0 0.5000000000020587 0.0
0.0 0.4875000000020093 0.0
0.0 0.4750000000019601 0.0
0.0 0.4625000000019108 0.0
0.0 0.4500000000018616 0.0
0.0 0.4375000000018123 0.0
0.0 0.425000000001763 0.0
0.0 0.4125000000017136 0.0
0.0 0.4000000000016644 0.0
0.0 0.3875000000016123 0.0
0.0 0.3750000000015603 0.0
0.0 0.3625000000015083 0.0
0.0 0.3500000000014563 0.0
0.0 0.3375000000014042 0.0
0.0 0.3250000000013522 0.0
0.0 0.3125000000013003 0.0
0.0 0.3000000000012483 0.0
0.0 0.2875000000011962 0.0
0.0 0.2750000000011442 0.0
0.0 0.2625000000010922 0.0
0.0 0.2500000000010403 0.0
0.0 0.2375000000009883 0.0
0.0 0.2250000000009362 0.0
0.0 0.2125000000008842 0.0
0.0 0.2000000000008322 0.0
0.0 0.1875000000007802 0.0
0.0 0.1750000000007281 0.0
0.0 0.1625000000006761 0.0
0.0 0.1500000000006241 0.0
0.0 0.1375000000005721 0.0
0.0 0.12500000000052 0.0
0.0 0.112500000000468 0.0
0.0 0.100000000000416 0.0
0.0 0.08750000000036395 0.0
0.0 0.07500000000031193 0.0
0.0 0.06250000000026001 0.0
0.0 0.05000000000020799 0.0
0.0 0.03750000000015596 0.0
0.0 0.02500000000010394 0.0
0.0 0.01250000000005191 0.0
0.499547313951317 0.4984202829398231 0.0
0.7057142553715264 0.7049957919913439 0.0
0.2942617789825218 0.706558362574613 0.0
0.7052750732513358 0.29408370064617073 0.0
0.2941161372558304 0.29425664999463297 0.0
0.49473409022248005 0.7865288457870021 0.0
0.21400675843102512 0.49559804899934157 0.0
0.7879606576561358 0.5053778129282838 0.0
0.505369301426186 0.2119891966328729 0.0
0.8286074034533916 0.8287576993256224 0.0
0.17122528584787128 0.8286011816233976 0.0
0.8287577004551061 0.17139259539200086 0.0
0.17140751986106711 0.17123186221929698 0.0
0.6412438345717256 0.8516520873564006 0.0
0.14868333985619164 0.6419476520576217 0.0
0.36001439100831745 0.8471882363166383 0.0
0.8472916681795735 0.639858398754968 0.0
0.8516551147624887 0.3587551765143301 0.0
0.1529024464427883 0.36006180552290556 0.0
0.3587547979315107 0.148343271772372 0.0
0.6398585806283599 0.15270777331315408 0.0
0.5665851234669081 0.6415505082226679 0.0
0.3688065763014604 0.5781443560211958 0.0
0.6448511073779454 0.4469929790001165 0.0
0.43335085497228876 0.35323599965884955 0.0
0.42653529248703315 0.6555720715037009 0.0
0.6657620768186652 0.5502649260729648 0.0
0.3566111211511165 0.42874186251021185 0.0
0.5447859278293945 0.34262223816401394 0.0
0.4594948214297615 0.8920313032464312 0.0
[...]
POINT_DATA 7905
VECTORS vector double
0.0 0.0 0.0
0.0 0.0 0.0
0.0 0.0 0.0
0.0 0.0 0.0
0.0 0.0 0.0
0.0 0.0 0.0
0.0 0.0 0.0
0.0 0.0 0.0
0.0 0.0 0.0
0.0 0.0 0.0
0.0 0.0 0.0
0.0 0.0 0.0
0.0 0.0 0.0
0.0 0.0 0.0
0.0 0.0 0.0
0.0 0.0 0.0
0.0 0.0 0.0
0.0 0.0 0.0
0.0 0.0 0.0
0.0 0.0 0.0
0.0 0.0 0.0
0.0 0.0 0.0
0.0 0.0 0.0
0.0 0.0 0.0
0.0 0.0 0.0
0.0 0.0 0.0
0.0 0.0 0.0
0.0 0.0 0.0
0.0 0.0 0.0
0.0 0.0 0.0
0.0 0.0 0.0
0.0 0.0 0.0
0.0 0.0 0.0
0.0 0.0 0.0
0.0 0.0 0.0
0.0 0.0 0.0
0.0 0.0 0.0
0.0 0.0 0.0
0.0 0.0 0.0
0.0 0.0 0.0
0.0 0.0 0.0
0.0 0.0 0.0
0.0 0.0 0.0
0.0 0.0 0.0
0.0 0.0 0.0
0.0 0.0 0.0
0.0 0.0 0.0
0.0 0.0 0.0
0.0 0.0 0.0
0.0 0.0 0.0
0.0 0.0 0.0
0.0 0.0 0.0
0.0 0.0 0.0
0.0 0.0 0.0
0.0 0.0 0.0
0.0 0.0 0.0
0.0 0.0 0.0
0.0 0.0 0.0
0.0 0.0 0.0
0.0 0.0 0.0
0.0 0.0 0.0
0.0 0.0 0.0
0.0 0.0 0.0
0.0 0.0 0.0
0.0 0.0 0.0
0.0 0.0 0.0
0.0 0.0 0.0
0.0 0.0 0.0
0.0 0.0 0.0
0.0 0.0 0.0
0.0 0.0 0.0
0.0 0.0 0.0
0.0 0.0 0.0
0.0 0.0 0.0
0.0 0.0 0.0
0.0 0.0 0.0
0.0 0.0 0.0
0.0 0.0 0.0
0.0 0.0 0.0
0.0 0.0 0.0
0.0 0.0 0.0
0.0 0.0 0.0
0.0 0.0 0.0
0.0 0.0 0.0
0.0 0.0 0.0
0.0 0.0 0.0
0.0 0.0 0.0
0.0 0.0 0.0
0.0 0.0 0.0
0.0 0.0 0.0
0.0 0.0 0.0
0.0 0.0 0.0
0.0 0.0 0.0
0.0 0.0 0.0
0.0 0.0 0.0
0.0 0.0 0.0
0.0 0.0 0.0
0.0 0.0 0.0
0.0 0.0 0.0
0.0 0.0 0.0
0.0 0.0 0.0
0.0 0.0 0.0
0.0 0.0 0.0
0.0 0.0 0.0
0.0 0.0 0.0
0.0 0.0 0.0
0.0 0.0 0.0
0.0 0.0 0.0
0.0 0.0 0.0
0.0 0.0 0.0
0.0 0.0 0.0
0.0 0.0 0.0
0.0 0.0 0.0
0.0 0.0 0.0
0.0 0.0 0.0
0.0 0.0 0.0
0.0 0.0 0.0
0.0 0.0 0.0
0.0 0.0 0.0
0.0 0.0 0.0
0.0 0.0 0.0
0.0 0.0 0.0
0.0 0.0 0.0
0.0 0.0 0.0
0.0 0.0 0.0
0.0 0.0 0.0
0.0 0.0 0.0
0.0 0.0 0.0
0.0 0.0 0.0
0.0 0.0 0.0
0.0 0.0 0.0
0.0 0.0 0.0
0.0 0.0 0.0
0.0 0.0 0.0
0.0 0.0 0.0
0.0 0.0 0.0
0.0 0.0 0.0
0.0 0.0 0.0
0.0 0.0 0.0
0.0 0.0 0.0
0.0 0.0 0.0
0.0 0.0 0.0
0.0 0.0 0.0
0.0 0.0 0.0
0.0 0.0 0.0
0.0 0.0 0.0
0.0 0.0 0.0
0.0 0.0 0.0
0.0 0.0 0.0
0.0 0.0 0.0
0.0 0.0 0.0
0.0 0.0 0.0
0.0 0.0 0.0
0.0 0.0 0.0
0.0 0.0 0.0
0.0 0.0 0.0
0.0 0.0 0.0
0.0 0.0 0.0
0.0 0.0 0.0
0.0 0.0 0.0
0.0 0.0 0.0
0.0 0.0 0.0
1.0 0.0 0.0
1.0 0.0 0.0
1.0 0.0 0.0
1.0 0.0 0.0
1.0 0.0 0.0
1.0 0.0 0.0
1.0 0.0 0.0
1.0 0.0 0.0
1.0 0.0 0.0
1.0 0.0 0.0
1.0 0.0 0.0
1.0 0.0 0.0
1.0 0.0 0.0
1.0 0.0 0.0
1.0 0.0 0.0
1.0 0.0 0.0
1.0 0.0 0.0
1.0 0.0 0.0
1.0 0.0 0.0
1.0 0.0 0.0
1.0 0.0 0.0
1.0 0.0 0.0
1.0 0.0 0.0
1.0 0.0 0.0
1.0 0.0 0.0
1.0 0.0 0.0
1.0 0.0 0.0
1.0 0.0 0.0
1.0 0.0 0.0
1.0 0.0 0.0
1.0 0.0 0.0
1.0 0.0 0.0
1.0 0.0 0.0
1.0 0.0 0.0
1.0 0.0 0.0
1.0 0.0 0.0
1.0 0.0 0.0
1.0 0.0 0.0
1.0 0.0 0.0
1.0 0.0 0.0
1.0 0.0 0.0
1.0 0.0 0.0
1.0 0.0 0.0
1.0 0.0 0.0
1.0 0.0 0.0
1.0 0.0 0.0
1.0 0.0 0.0
1.0 0.0 0.0
1.0 0.0 0.0
1.0 0.0 0.0
1.0 0.0 0.0
1.0 0.0 0.0
1.0 0.0 0.0
1.0 0.0 0.0
1.0 0.0 0.0
1.0 0.0 0.0
1.0 0.0 0.0
1.0 0.0 0.0
1.0 0.0 0.0
1.0 0.0 0.0
1.0 0.0 0.0
1.0 0.0 0.0
1.0 0.0 0.0
1.0 0.0 0.0
1.0 0.0 0.0
1.0 0.0 0.0
1.0 0.0 0.0
1.0 0.0 0.0
1.0 0.0 0.0
1.0 0.0 0.0
1.0 0.0 0.0
1.0 0.0 0.0
1.0 0.0 0.0
1.0 0.0 0.0
1.0 0.0 0.0
1.0 0.0 0.0
1.0 0.0 0.0
1.0 0.0 0.0
1.0 0.0 0.0
0.0 0.0 0.0
0.0 0.0 0.0
0.0 0.0 0.0
0.0 0.0 0.0
0.0 0.0 0.0
0.0 0.0 0.0
0.0 0.0 0.0
0.0 0.0 0.0
0.0 0.0 0.0
0.0 0.0 0.0
0.0 0.0 0.0
0.0 0.0 0.0
0.0 0.0 0.0
0.0 0.0 0.0
0.0 0.0 0.0
0.0 0.0 0.0
0.0 0.0 0.0
0.0 0.0 0.0
0.0 0.0 0.0
0.0 0.0 0.0
0.0 0.0 0.0
0.0 0.0 0.0
0.0 0.0 0.0
0.0 0.0 0.0
0.0 0.0 0.0
0.0 0.0 0.0
0.0 0.0 0.0
0.0 0.0 0.0
0.0 0.0 0.0
0.0 0.0 0.0
0.0 0.0 0.0
0.0 0.0 0.0
0.0 0.0 0.0
0.0 0.0 0.0
0.0 0.0 0.0
0.0 0.0 0.0
0.0 0.0 0.0
0.0 0.0 0.0
0.0 0.0 0.0
0.0 0.0 0.0
0.0 0.0 0.0
0.0 0.0 0.0
0.0 0.0 0.0
0.0 0.0 0.0
0.0 0.0 0.0
0.0 0.0 0.0
0.0 0.0 0.0
0.0 0.0 0.0
0.0 0.0 0.0
0.0 0.0 0.0
0.0 0.0 0.0
0.0 0.0 0.0
0.0 0.0 0.0
0.0 0.0 0.0
0.0 0.0 0.0
0.0 0.0 0.0
0.0 0.0 0.0
0.0 0.0 0.0
0.0 0.0 0.0
0.0 0.0 0.0
0.0 0.0 0.0
0.0 0.0 0.0
0.0 0.0 0.0
0.0 0.0 0.0
0.0 0.0 0.0
0.0 0.0 0.0
0.0 0.0 0.0
0.0 0.0 0.0
0.0 0.0 0.0
0.0 0.0 0.0
0.0 0.0 0.0
0.0 0.0 0.0
0.0 0.0 0.0
0.0 0.0 0.0
0.0 0.0 0.0
0.0 0.0 0.0
0.0 0.0 0.0
0.0 0.0 0.0
0.0 0.0 0.0
-0.13172320278 0.0262113987971 0.0
-0.198630025919 -0.0933069404503 0.0
-0.11608184674 0.150788682205 0.0
-0.0567461570712 -0.0367350802333 0.0
-0.0486960222942 0.0343219719324 0.0
-0.0525743627026 0.0814419109384 0.0
-0.055495220604 0.0941155825434 0.0
-0.113291150873 -0.131695514628 0.0
-0.0588490901934 0.00116865521369 0.0
-0.0387795086369 -0.275255108477 0.0
-0.0878232548225 0.217802283317 0.0
-0.0168295122212 -0.0163873137384 0.0
-0.0163222380161 0.0150081712721 0.0
0.15314727129 0.0104791904516 0.0
-0.0519552213089 0.149427524714 0.0
0.0265867307186 0.102506779848 0.0
-0.156040403233 -0.264130245797 0.0
-0.028886646616 -0.0582720833285 0.0
-0.023949947934 0.05095675001 0.0
-0.0385247930496 0.00884619832643 0.0
-0.0414338646679 -0.00889491607473 0.0
-0.182194555098 0.0296829844667 0.0
-0.121713984814 0.0933813766132 0.0
-0.124913950316 -0.0470229454629 0.0
-0.0832622626693 0.0231100568137 0.0
-0.144273327059 0.0966907718118 0.0
-0.17570484049 -0.0675565116033 0.0
-0.0855866141505 0.0543023155803 0.0
-0.0887188784395 -0.00549578192256 0.0
0.292011798196 0.0470026079748 0.0
-0.0152998391788 0.0680227412684 0.0
-0.0467666156131 -0.139647437436 0.0
-0.0402465396976 -0.00100508535641 0.0
0.374312254971 -0.0422266765818 0.0
-0.042137309761 0.179292450074 0.0
-0.00865878947978 -0.0238965952657 0.0
-0.0201651345616 0.00570007107874 0.0
-0.127098936332 -0.389381339505 0.0
0.132229482695 0.100249696327 0.0
-0.0220402986014 -0.00654051984236 0.0
-0.0088357320278 0.0235235946181 0.0
-0.0699319022018 0.0296496235382 0.0
-0.0734871248923 0.130979429773 0.0
-0.0619089442104 -0.0707667534731 0.0
-0.0538858502983 0.0173885780194 0.0
-0.0996685024395 0.11915890153 0.0
-0.195880363508 -0.155240227109 0.0
-0.0506183275813 0.0604833770033 0.0
-0.0624248449431 -0.0146516482835 0.0
0.048177195459 -0.360972101662 0.0
-0.0798939863403 0.257116442277 0.0
-0.00337902210964 -0.00363296857864 0.0
-0.00345797572137 0.00356568793697 0.0
0.447826205667 0.0171774964365 0.0
-0.0158718761831 0.0884327771276 0.0
-0.0151506094907 -0.0599480614363 0.0
-0.0298874441045 0.00203265103806 0.0
-0.202860174345 -0.249902104231 0.0
-0.0893189676056 0.16092029868 0.0
-0.0394902153852 -0.0214986958051 0.0
-0.0303788378426 0.0349977430673 0.0
-0.0422775110107 -0.0825022921083 0.0
-0.0917706365576 0.184395717658 0.0
-0.0332729507865 -0.0389653143904 0.0
-0.0358209815345 0.0193974420471 0.0
-0.154690988171 0.0565564771159 0.0
-0.167196452972 -0.00663377791962 0.0
-0.115546637255 0.0584430061701 0.0
-0.118436685227 -0.00828492958949 0.0
-0.209032110392 -0.0388258847223 0.0
-0.126529528293 0.121274415879 0.0
-0.0859157665644 -0.032926761691 0.0
-0.0662252289485 0.0391758699394 0.0
0.546549791319 8.49205389704e-05 0.0
-0.0153183561622 0.104495855855 0.0
-0.00616014025354 -0.0307240677292 0.0
-0.0210685195516 0.00231726658673 0.0
-0.0520594039912 -0.202778780286 0.0
-0.0242115348213 -0.00259334114272 0.0
0.378083097561 0.0399938153739 0.0
-0.00658484190628 0.03269344258 0.0
0.36820198655 -0.102832585864 0.0
-0.0555061015257 0.225144491537 0.0
-0.0039479078173 -0.00916958629548 0.0
-0.00873820924346 0.00370960375325 0.0
-0.104271642107 -0.48776757081 0.0
-0.0091052948974 -0.00411818703478 0.0
0.103486238369 0.129489193047 0.0
-0.00410900874583 0.00927425500483 0.0
-0.149014797991 0.0771105403812 0.0
-0.0865937307233 0.0859810289685 0.0
-0.134830786982 -0.0938051207032 0.0
-0.0710366826416 0.00412194900614 0.0
0.0744000531323 0.0496281142397 0.0
-0.0455404804558 0.115048566386 0.0
-0.0531176198117 -0.0981141669754 0.0
-0.0465473596502 0.00511635267313 0.0
-0.0362571667056 0.0935876530557 0.0
-0.0285479446492 0.0716665084592 0.0
-0.0937800503612 -0.187897892778 0.0
-0.0380100414371 -0.00555696723329 0.0
-0.1072430222 0.0258907989534 0.0
-0.0996788892274 0.00813210868245 0.0
-0.101609311489 -0.00781820844313 0.0
-0.113593074391 0.00879399100222 0.0
-0.000894557867696 -0.00162537867011 0.0
-0.000641683156976 -0.000304543270561 0.0
-0.00226556663805 0.000946675847897 0.0
-0.000642724714807 0.000360296358826 0.0
0.364998621202 -0.146243169667 0.0
0.0602233618085 -0.371643835082 0.0
-0.0671608090408 0.268389505862 0.0
-0.0599657310236 0.281408328515 0.0
-0.00229635984135 -0.000963110001042 0.0
-0.000943813152051 0.00175136951819 0.0
-0.0624502222779 -0.507122709459 0.0
0.118716527721 0.150116710561 0.0
-0.0882428379346 0.00939196289389 0.0
-0.0947073741609 0.0246219285574 0.0
-0.149688113775 0.088991962518 0.0
-0.128224865396 0.0980717000133 0.0
-0.136410520658 0.107790270578 0.0
-0.163947823807 -0.0844255193084 0.0
-0.168699304334 -0.117751551323 0.0
-0.195949535844 -0.099144904345 0.0
-0.0852092411523 0.0694565730816 0.0
-0.070024589943 0.0751751366169 0.0
-0.0713828442847 0.0605831303208 0.0
-0.0797581416454 -0.00046222760134 0.0
-0.0708533739766 -0.00480289544873 0.0
-0.0767799692531 -0.0123840337625 0.0
-0.119303768747 0.075349091038 0.0
-0.135094263795 0.0582824594035 0.0
-0.138195049137 0.0766082076081 0.0
-0.151955475346 0.0801909389962 0.0
-0.137918590283 0.0945054362598 0.0
-0.148227426812 -0.0307106016052 0.0
-0.140576770743 -0.00873596848705 0.0
-0.122054453806 -0.0264578876436 0.0
-0.154680194512 -0.0559024214068 0.0
-0.177916314922 -0.0387929640057 0.0
-0.112854769352 0.0825475300184 0.0
-0.0910574833653 0.098666441259 0.0
-0.0713410768905 0.0926355497602 0.0
-0.0565586508649 0.0786994732766 0.0
-0.130281804643 -0.113116353677 0.0
-0.155611316907 -0.146931268 0.0
-0.0664642603692 0.0026280466774 0.0
-0.0627189302414 -0.00464988053604 0.0
-0.0714058623428 0.146970831803 0.0
-0.0905331647757 0.159607711123 0.0
-0.0723534597978 0.17070486118 0.0
-0.000864521630859 0.0199075014453 0.0
-0.0770342154728 -0.0197023227077 0.0
0.0547238809465 -0.0207827182171 0.0
-0.0477503619285 0.0130975711264 0.0
-0.0469100067122 0.0197534995936 0.0
-0.0383067959071 0.0137149500612 0.0
-0.0485552744176 -0.0679558998476 0.0
-0.0487849325449 -0.0537563156939 0.0
-0.0316791623202 -0.0492284170648 0.0
-0.105305660871 0.166659157952 0.0
-0.106955152382 0.146440415024 0.0
-0.144853232861 -0.0875352124753 0.0
-0.162382229455 -0.0309033512296 0.0
-0.0433554164777 0.0269386886839 0.0
-0.0543211438267 0.0269990128214 0.0
-0.0471275440265 -0.0401414823702 0.0
-0.0636738566925 -0.0492811200199 0.0
-0.199596650652 -0.281837687669 0.0
-0.218924720213 -0.205564405906 0.0
-0.192227806762 -0.223984738362 0.0
-0.0466536513388 0.132498187828 0.0
-0.0965497744052 0.139831190759 0.0
-0.0610119811165 0.119427253588 0.0
-0.0414529567128 -0.0145330548609 0.0
-0.0514944239837 -0.0202022606779 0.0
-0.0509243660267 -0.0127281970231 0.0
-0.0274662222542 0.0434179726562 0.0
-0.0399290277682 0.0466082320139 0.0
-0.0367333399908 0.0562017499177 0.0
-0.0977157581843 0.0419217941683 0.0
-0.0860153626167 0.0382685970849 0.0
0.612290721322 0.0144537302801 0.0
0.629699939245 0.012116454599 0.0
-0.00392615679451 0.0341742118945 0.0
-0.00479229006071 0.0436394712091 0.0
-0.0152628488235 -0.0904125317813 0.0
-0.0107667480074 -0.065879931716 0.0
-0.0230167359906 -0.000590401270971 0.0
-0.0240872488749 3.25351679364e-05 0.0
-0.0161740239969 -0.108959223581 0.0
-0.0537908445343 -0.173798616142 0.0
-0.0188607877104 -0.000798270983256 0.0
-0.0306156389796 -0.00238386465411 0.0
0.643692383772 0.0128703411705 0.0
0.333070292751 0.0430379918886 0.0
-0.00248082157139 0.023157757207 0.0
-0.0102139126546 0.0457871377465 0.0
-0.131281084359 -0.0703566552282 0.0
-0.0782012942943 0.0116952592105 0.0
-0.221747160778 -0.132554822023 0.0
-0.203900328831 -0.160453899058 0.0
-0.118267002013 0.138909745639 0.0
-0.109510816236 0.158578495237 0.0
-0.0613014347558 -0.0267058420411 0.0
-0.0488069381183 -0.0292678236725 0.0
-0.0510029404509 0.044623439659 0.0
-0.0409855434736 0.035911215058 0.0
-0.136314043466 0.109495939302 0.0
-0.124652653073 0.109585487729 0.0
-0.0752598643135 0.0468514103202 0.0
-0.0755709088658 0.0327829932851 0.0
-0.111487825995 0.0427839368373 0.0
-0.0992393290477 0.0578350824515 0.0
-0.147444048996 0.0381258098399 0.0
-0.128138700295 0.042359139222 0.0
-0.130720600807 0.00934180197827 0.0
-0.150462506113 0.0137617609627 0.0
-0.101150860522 -0.209552667635 0.0
-0.102919710588 -0.254569896307 0.0
-0.0402953106435 -0.00450008361735 0.0
-0.0330019335252 -0.00522429140778 0.0
0.127256614354 0.0737066123208 0.0
0.175217363928 0.0723557881198 0.0
-0.0207092496394 0.0586902436712 0.0
-0.0138850820859 0.0434403283172 0.0
0.69905261246 -0.00987312633031 0.0
0.662935093647 -0.0211408177412 0.0
-0.0106649004387 0.102282184892 0.0
-0.0157711689546 0.129312271505 0.0
-0.0021450673394 -0.0132926604103 0.0
-0.00190357176154 -0.00962322784771 0.0
-0.0129727932395 0.00128405164911 0.0
-0.0102920364171 0.00147858085628 0.0
-0.0482595075424 -0.309882998825 0.0
-0.0371467659826 -0.230644147 0.0
-0.0113000556972 -0.00174416758276 0.0
-0.0146767500999 -0.00153700698993 0.0
0.451859287703 0.0394563331086 0.0
0.521473181634 0.0274599623907 0.0
-0.002078103974 0.0103733003937 0.0
-0.00230728740135 0.0144652171716 0.0
0.373551783277 0.0284848174664 0.0
0.689558939156 0.00706571873842 0.0
-0.0162125436921 0.078528599157 0.0
-0.00458766818342 0.0485314786331 0.0
-0.026150954416 -0.0879588986712 0.0
-0.00575395121556 -0.0424420532968 0.0
-0.0338642885423 0.00108909412368 0.0
-0.0214380298043 0.000489873624336 0.0
-0.154239012983 -0.326499440829 0.0
-0.186270656693 -0.346136589283 0.0
0.0610118787718 0.10604521836 0.0
-0.0347242379481 0.14772949108 0.0
-0.0323528782504 -0.00887574061624 0.0
-0.030747736326 -0.0138751627434 0.0
-0.0162340650302 0.0372649838697 0.0
-0.0194258397116 0.0311523424669 0.0
0.00964279989197 0.0649067850002 0.0
0.15186509115 0.0518991839195 0.0
0.0516090696848 0.0714345635464 0.0
-0.0511978137702 0.10633586578 0.0
-0.0320960711715 0.0953167794992 0.0
-0.0375833460145 0.0880276603178 0.0
-0.0795404774738 -0.115223912417 0.0
-0.0554319928941 -0.115639200161 0.0
-0.0888230577652 -0.145105204895 0.0
-0.0533191245955 0.00401949651637 0.0
-0.0444509786219 0.00179521697567 0.0
-0.0499342308764 -0.000249137951727 0.0
-0.196188512739 0.00249542903504 0.0
-0.186745969665 -0.00608221342555 0.0
-0.173683686522 0.0315719007224 0.0
-0.113418246292 0.126732613188 0.0
-0.106840310546 0.110780976134 0.0
-0.102332537005 -0.0405353254387 0.0
-0.0833157383872 -0.0497825989202 0.0
-0.103117491487 -0.0611060856565 0.0
-0.0650532706679 0.0285387744791 0.0
-0.0718314630435 0.0208873492823 0.0
0.14522324534 -0.125203784256 0.0
0.117267103852 -0.068997714536 0.0
-0.029440347765 -0.16337297248 0.0
-0.0768404287372 0.218470414348 0.0
-0.0727576435141 0.194976750802 0.0
-0.0933165346691 0.204992096338 0.0
-0.0136816767095 -0.0221028423806 0.0
-0.0201947007684 -0.0336201098614 0.0
-0.0238718423398 -0.0268127759839 0.0
-0.0198816435532 0.0105362778839 0.0
-0.0283549402045 0.0123141776498 0.0
-0.0258756876329 0.0179037318764 0.0
-0.209145964595 -0.0636428424953 0.0
-0.121192498317 0.135635771484 0.0
-0.0709114544425 -0.0368535155996 0.0
-0.0588824144887 0.0371903261774 0.0
-0.184765299581 0.0126261511099 0.0
-0.194735515399 -0.0202483546201 0.0
-0.202128947224 -0.0590448869438 0.0
-0.102418114233 -0.0233013898389 0.0
-0.0873818203712 -0.0189555311623 0.0
0.734935001506 0.00374693269254 0.0
-0.00446559833147 0.0532403307385 0.0
-0.00319452923129 -0.0282659878255 0.0
-0.018243979907 0.000630124699182 0.0
-0.0292029317664 0.0900063930485 0.0
-0.0633126729161 0.105974267566 0.0
-0.128158518847 -0.164159818702 0.0
-0.166905593526 -0.185475378317 0.0
-0.0438011662741 0.0803866913581 0.0
-0.0437779237562 0.0686620704431 0.0
-0.0549001619807 -0.00332377705412 0.0
-0.056000400806 -0.00837678606526 0.0
0.374474676223 -0.0769333961825 0.0
0.643550988124 -0.0327159189615 0.0
-0.0497867195978 0.205471916291 0.0
-0.0202315257877 0.151715711277 0.0
-0.00594369902157 -0.01480962436 0.0
-0.00133188897697 -0.00572272637133 0.0
-0.0135228291931 0.00490127566062 0.0
-0.00685957287047 0.00121554111082 0.0
-0.0496085892989 -0.366996890017 0.0
-0.119723052209 -0.453128298027 0.0
-0.00734758166998 -0.00138290417974 0.0
-0.0142879198239 -0.00557710043605 0.0
0.420809988766 0.0482551065125 0.0
0.110492854736 0.117824075584 0.0
-0.00144799388314 0.00617791098672 0.0
-0.00621652578671 0.014785619422 0.0
-0.0497480926091 0.167206498244 0.0
0.240331312893 -0.0182416751593 0.0
-0.0299129373198 0.00816315500511 0.0
-0.0174733077418 -0.0400929676816 0.0
-0.148536500935 -0.278184997208 0.0
-0.153074642866 -0.395724973942 0.0
-0.0876215000141 0.186436043148 0.0
-0.0357580549677 0.168284341024 0.0
-0.0278065844051 -0.0201333240772 0.0
-0.0210746800019 -0.0119141300443 0.0
-0.0228852457419 0.0244991796262 0.0
-0.0136989255315 0.0209123628053 0.0
-0.0010787604019 -0.0032738206074 0.0
0.55959022792 -0.0602953358861 0.0
-0.00429898398887 0.0010762599363 0.0
-0.0339511013176 0.196861476067 0.0
-0.0585720197321 -0.446948212828 0.0
-0.00448446629517 -0.00116515344648 0.0
0.314818916577 0.0760738586515 0.0
-0.00115162818816 0.00352839593116 0.0
0.227362322241 0.0353187587626 0.0
-0.0311241780629 0.107440377057 0.0
-0.0346011046469 -0.0852991052802 0.0
-0.0399501029782 0.00355850127562 0.0
-0.00414455802517 -0.00677781111707 0.0
-0.00656251884637 0.00417176045397 0.0
0.226504369626 -0.193585058942 0.0
-0.0792254654367 0.258219515278 0.0
-0.0766182723008 -0.47827553622 0.0
-0.00663804876039 -0.00447497496272 0.0
-0.00831064748762 0.188848089133 0.0
-0.00429560414941 0.00673789069777 0.0
-0.142918731954 -0.171294615373 0.0
-0.102237245324 0.181550700132 0.0
-0.0360902525115 -0.0296224771591 0.0
-0.0329460212516 0.0265404582044 0.0
-0.14025465693 0.0597284599279 0.0
-0.170087599807 0.0535812131841 0.0
-0.0884270971047 0.105489552243 0.0
-0.103894463766 0.0917011205527 0.0
-0.110584092275 -0.084737006939 0.0
-0.0686572681872 0.0113009898923 0.0
0.0589573694687 0.0788597250491 0.0
-0.0304165056929 0.0730295397504 0.0
0.00209270000625 0.0974472448609 0.0
-0.0315587402014 0.0634135467328 0.0
-0.10566587065 -0.180149996914 0.0
-0.0470512900424 -0.00340993230351 0.0
-0.14609182701 -0.216105709868 0.0
-0.047918852361 -0.00730354160496 0.0
0.754064149759 -0.00255139501863 0.0
0.477107205649 -0.010463892822 0.0
-0.0058816667905 0.0733345491161 0.0
-0.0249776925982 0.136099067616 0.0
0.271984904371 0.0607338903219 0.0
0.348830323979 0.00362211639396 0.0
-0.0315868995744 0.134859853831 0.0
-0.0849467106854 -0.284850581467 0.0
-0.00765299579624 0.0289111207262 0.0
-0.0241269434133 -0.00415463770081 0.0
0.618816178088 0.0159336620091 0.0
-0.0218187774409 -0.149719822556 0.0
-0.00206191521724 0.0173442517547 0.0
-0.0162395867771 -0.000992113498119 0.0
-0.00189627143615 -0.0154543131652 0.0
-0.00753177761169 -0.0285944123937 0.0
-0.0137755009371 0.000807264268193 0.0
-0.0217830814911 0.00367346158258 0.0
-0.0147687471097 -0.0449817415818 0.0
-0.029709327591 0.0050173063941 0.0
-0.0808014740474 0.0649646395215 0.0
-0.0709028293143 0.110921602507 0.0
-0.0949488510646 -0.100251850062 0.0
-0.0608372317836 0.00791363202234 0.0
-0.163639829428 0.06748905714 0.0
-0.174745072024 0.0424279926599 0.0
-0.101498263801 0.0737487759963 0.0
0.161010298459 -0.178853462547 0.0
-0.0807269583349 0.239091155927 0.0
-0.108235204032 -0.429380650193 0.0
-0.00889271903201 -0.0136772182272 0.0
-0.0375637625259 0.187718688747 0.0
-0.0127658981511 0.00797195176576 0.0
-0.0131532680797 -0.00879347511239 0.0
-0.00902801044843 0.0131261056459 0.0
0.105056805859 0.0342732086174 0.0
-0.0160980248224 0.0487091956556 0.0
-0.0501902199003 0.131037962543 0.0
-0.064720324616 0.125780930135 0.0
-0.0662539881471 -0.089167304768 0.0
-0.0421127873588 -0.0781312318594 0.0
-0.044577768825 0.00751152828389 0.0
-0.0532672316502 0.00933837540318 0.0
-0.1291325363 0.123361693598 0.0
-0.216626197062 -0.0942030867436 0.0
-0.0630074124032 0.0491170264743 0.0
-0.0737037822415 -0.0238021677412 0.0
0.012269124241 -0.32582208538 0.0
-0.0842371675717 0.237516475778 0.0
-0.0087900787119 -0.00912830507054 0.0
-0.00878863573599 0.00860360833152 0.0
-0.166448747681 0.0266990124377 0.0
0.504640624642 0.00801915708678 0.0
0.766242034219 0.000931419704975 0.0
-0.0158485636406 0.0980154502278 0.0
-0.00439345816754 0.0586042271463 0.0
0.279859829954 0.0203780244225 0.0