# vtk DataFile Version 2.0
2D Simulation Python
ASCII
DATASET UNSTRUCTURED_GRID
FIELD FieldData 1
NODES 1 2 int
7905 15488

POINTS 7905 double
0.0 0.0 0.0
1.0 0.0 0.0
1.0 1.0 0.0
0.0 1.0 0.0
0.01249999999997639 0.0 0.0
0.02499999999995297 0.0 0.0
0.03749999999992721 0.0 0.0
0.04999999999989927 0.0 0.0
0.0624999999998716 0.0 0.0
0.07499999999985263 0.0 0.0
0.08749999999983366 0.0 0.0
0.09999999999981467 0.0 0.0
0.1124999999997956 0.0 0.0
0.1249999999997765 0.0 0.0
0.1374999999997401 0.0 0.0
0.1499999999997036 0.0 0.0
0.1624999999996672 0.0 0.0
0.1749999999996308 0.0 0.0
0.1874999999995943 0.0 0.0
0.1999999999995579 0.0 0.0
0.2124999999995214 0.0 0.0
0.224999999999485 0.0 0.0
0.2374999999994485 0.0 0.0
0.2499999999994121 0.0 0.0
0.2624999999993757 0.0 0.0
0.2749999999993393 0.0 0.0
0.2874999999993028 0.0 0.0
0.2999999999992664 0.0 0.0
0.3124999999992299 0.0 0.0
0.3249999999991935 0.0 0.0
0.3374999999991571 0.0 0.0
0.3499999999991207 0.0 0.0
0.3624999999990842 0.0 0.0
0.3749999999990478 0.0 0.0
0.3874999999990113 0.0 0.0
0.3999999999989749 0.0 0.0
0.4124999999989398 0.0 0.0
0.4249999999989048 0.0 0.0
0.4374999999988697 0.0 0.0
0.4499999999988346 0.0 0.0
0.4624999999987995 0.0 0.0
0.4749999999987644 0.0 0.0
0.4874999999987293 0.0 0.0
0.4999999999986943 0.0 0.0
0.5124999999987259 0.0 0.0
0.5249999999987575 0.0 0.0
0.5374999999987891 0.0 0.0
0.5499999999988205 0.0 0.0
0.5624999999988521 0.0 0.0
0.5749999999988837 0.0 0.0
0.5874999999989152 0.0 0.0
0.5999999999989468 0.0 0.0
0.6124999999989797 0.0 0.0
0.6249999999990127 0.0 0.0
0.6374999999990456 0.0 0.0
0.6499999999990784 0.0 0.0
0.6624999999991114 0.0 0.0
0.6749999999991443 0.0 0.0
0.6874999999991771 0.0 0.0
0.69999999999921 0.0 0.0
0.712499999999243 0.0 0.0
0.7249999999992759 0.0 0.0
0.7374999999993088 0.0 0.0
0.7499999999993416 0.0 0.0
0.7624999999993746 0.0 0.0
0.7749999999994075 0.0 0.0
0.7874999999994404 0.0 0.0
0.7999999999994734 0.0 0.0
0.8124999999995063 0.0 0.0
0.8249999999995392 0.0 0.0
0.8374999999995721 0.0 0.0
0.8499999999996051 0.0 0.0
0.862499999999638 0.0 0.0
0.8749999999996709 0.0 0.0
0.8874999999997039 0.0 0.0
0.8999999999997368 0.0 0.0
0.9124999999997697 0.0 0.0
0.9249999999998026 0.0 0.0
0.9374999999998355 0.0 0.0
0.9499999999998684 0.0 0.0
0.9624999999999013 0.0 0.0
0.9749999999999343 0.0 0.0
0.9874999999999672 0.0 0.0
1.0 0.01249999999997639 0.0
1.0 0.02499999999995297 0.0
1.0 0.03749999999992721 0.0
1.0 0.04999999999989927 0.0
1.0 0.0624999999998716 0.0
1.0 0.07499999999985263 0.0
1.0 0.08749999999983366 0.0
1.0 0.09999999999981467 0.0
1.0 0.1124999999997956 0.0
1.0 0.1249999999997765 0.0
1.0 0.1374999999997401 0.0
1.0 0.1499999999997036 0.0
1.0 0.1624999999996672 0.0
1.0 0.1749999999996308 0.0
1.0 0.1874999999995943 0.0
1.0 0.1999999999995579 0.0
1.0 0.2124999999995214 0.0
1.0 0.224999999999485 0.0
1.0 0.2374999999994485 0.0
1.0 0.2499999999994121 0.0
1.0 0.2624999999993757 0.0
1.0 0.2749999999993393 0.0
1.0 0.2874999999993028 0.0
1.0 0.2999999999992664 0.0
1.0 0.3124999999992299 0.0
1.0 0.3249999999991935 0.0
1.0 0.3374999999991571 0.0
1.0 0.3499999999991207 0.0
1.0 0.3624999999990842 0.0
1.0 0.3749999999990478 0.0
1.0 0.3874999999990113 0.0
1.0 0.3999999999989749 0.0
1.0 0.4124999999989398 0.0
1.0 0.4249999999989048 0.0
1.0 0.4374999999988697 0.0
1.0 0.4499999999988346 0.0
1.0 0.4624999999987995 0.0
1.0 0.4749999999987644 0.0
1.0 0.4874999999987293 0.0
1.0 0.4999999999986943 0.0
1.0 0.5124999999987259 0.0
1.0 0.5249999999987575 0.0
1.0 0.5374999999987891 0.0
1.0 0.5499999999988205 0.0
1.0 0.5624999999988521 0.0
1.0 0.5749999999988837 0.0
1.0 0.5874999999989152 0.0
1.0 0.5999999999989468 0.0
1.0 0.6124999999989797 0.0
1.0 0.6249999999990127 0.0
1.0 0.6374999999990456 0.0
1.0 0.6499999999990784 0.0
1.0 0.6624999999991114 0.0
1.0 0.6749999999991443 0.0
1.0 0.6874999999991771 0.0
1.0 0.69999999999921 0.0
1.0 0.712499999999243 0.0
1.0 0.7249999999992759 0.0
1.0 0.7374999999993088 0.0
1.0 0.7499999999993416 0.0
1.0 0.7624999999993746 0.0
1.0 0.7749999999994075 0.0
1.0 0.7874999999994404 0.0
1.0 0.7999999999994734 0.0
1.0 0.8124999999995063 0.0
1.0 0.8249999999995392 0.0
1.0 0.8374999999995721 0.0
1.0 0.8499999999996051 0.0
1.0 0.862499999999638 0.0
1.0 0.8749999999996709 0.0
1.0 0.8874999999997039 0.0
1.0 0.8999999999997368 0.0
1.0 0.9124999999997697 0.0
1.0 0.9249999999998026 0.0
1.0 0.9374999999998355 0.0
1.0 0.9499999999998684 0.0
1.0 0.9624999999999013 0.0
1.0 0.9749999999999343 0.0
1.0 0.9874999999999672 0.0
0.9874999999999439 1.0 0.0
0.9749999999998877 1.0 0.0
0.9624999999998541 1.0 0.0
0.9499999999998356 1.0 0.0
0.9374999999997805 1.0 0.0
0.9249999999996992 1.0 0.0
0.9124999999996414 1.0 0.0
0.8999999999995836 1.0 0.0
0.8874999999996454 1.0 0.0
0.8749999999997078 1.0 0.0
0.8624999999997771 1.0 0.0
0.8499999999998515 1.0 0.0
0.837499999999895 1.0 0.0
0.8249999999999216 1.0 0.0
0.8124999999999571 1.0 0.0
0.7999999999999998 1.0 0.0
0.7875000000000937 1.0 0.0
0.77500000000021 1.0 0.0
0.7625000000002968 1.0 0.0
0.7500000000003858 1.0 0.0
0.7375000000004739 1.0 0.0
0.7250000000005448 1.0 0.0
0.7125000000005861 1.0 0.0
0.7000000000006934 1.0 0.0
0.6875000000008109 1.0 0.0
0.6750000000009306 1.0 0.0
0.6625000000010091 1.0 0.0
0.6500000000010593 1.0 0.0
0.6375000000011386 1.0 0.0
0.6250000000012101 1.0 0.0
0.612500000001312 1.0 0.0
0.6000000000013869 1.0 0.0
0.5875000000014601 1.0 0.0
0.5750000000015277 1.0 0.0
0.5625000000016089 1.0 0.0
0.5500000000016854 1.0 0.0
0.5375000000017889 1.0 0.0
0.5250000000018821 1.0 0.0
0.5125000000019756 1.0 0.0
0.5000000000020587 1.0 0.0
0.4875000000020093 1.0 0.0
0.4750000000019601 1.0 0.0
0.4625000000019108 1.0 0.0
0.4500000000018616 1.0 0.0
0.4375000000018123 1.0 0.0
0.425000000001763 1.0 0.0
0.4125000000017136 1.0 0.0
0.4000000000016644 1.0 0.0
0.3875000000016123 1.0 0.0
0.3750000000015603 1.0 0.0
0.3625000000015083 1.0 0.0
0.3500000000014563 1.0 0.0
0.3375000000014042 1.0 0.0
0.3250000000013522 1.0 0.0
0.3125000000013003 1.0 0.0
0.3000000000012483 1.0 0.0
0.2875000000011962 1.0 0.0
0.2750000000011442 1.0 0.0
0.2625000000010922 1.0 0.0
0.2500000000010403 1.0 0.0
0.2375000000009883 1.0 0.0
0.2250000000009362 1.0 0.0
0.2125000000008842 1.0 0.0
0.2000000000008322 1.0 0.0
0.1875000000007802 1.0 0.0
0.1750000000007281 1.0 0.0
0.1625000000006761 1.0 0.0
0.1500000000006241 1.0 0.0
0.1375000000005721 1.0 0.0
0.12500000000052 1.0 0.0
0.112500000000468 1.0 0.0
0.100000000000416 1.0 0.0
0.08750000000036395 1.0 0.0
0.07500000000031193 1.0 0.0
0.06250000000026001 1.0 0.0
0.05000000000020799 1.0 0.0
0.03750000000015596 1.0 0.0
0.02500000000010394 1.0 0.0
0.01250000000005191 1.0 0.0
0.0 0.9874999999999439 0.0
0.0 0.9749999999998877 0.0
0.0 0.9624999999998541 0.0
0.0 0.9499999999998356 0.0
0.0 0.9374999999997805 0.0
0.0 0.9249999999996992 0.0
0.0 0.9124999999996414 0.0
0.0 0.8999999999995836 0.0
0.0 0.8874999999996454 0.0
0.0 0.8749999999997078 0.0
0.0 0.8624999999997771 0.0
0.0 0.8499999999998515 0.0
0.0 0.837499999999895 0.0
0.0 0.8249999999999216 0.0
0.0 0.8124999999999571 0.0
0.0 0.7999999999999998 0.0
0.0 0.7875000000000937 0.0
0.0 0.77500000000021 0.0
0.0 0.7625000000002968 0.0
0.0 0.7500000000003858 0.0
0.0 0.7375000000004739 0.0
0.0 0.7250000000005448 0.0
0.0 0.7125000000005861 0.0
0.0 0.7000000000006934 0.0
0.0 0.6875000000008109 0.0
0.0 0.6750000000009306 0.0
0.0 0.6625000000010091 0.0
0.0 0.6500000000010593 0.0
0.0 0.6375000000011386 0.0
0.0 0.6250000000012101 0.0
0.0 0.612500000001312 0.0
0.0 0.6000000000013869 0.0
0.0 0.5875000000014601 0.0
0.0 0.5750000000015277 0.0
0.0 0.5625000000016089 0.0
0.0 0.5500000000016854 0.0
0.0 0.5375000000017889 0.0
0.0 0.5250000000018821 0.0
0.0 0.5125000000019756 0.0
0.0 0.5000000000020587 0.0
0.0 0.4875000000020093 0.0
0.0 0.4750000000019601 0.0
0.0 0.4625000000019108 0.0
0.0 0.4500000000018616 0.0
0.0 0.4375000000018123 0.0
0.0 0.425000000001763 0.0
0.0 0.4125000000017136 0.0
0.0 0.4000000000016644 0.0
0.0 0.3875000000016123 0.0
0.0 0.3750000000015603 0.0
0.0 0.3625000000015083 0.0
0.0 0.3500000000014563 0.0
0.0 0.3375000000014042 0.0
0.0 0.3250000000013522 0.0
0.0 0.3125000000013003 0.0
0.0 0.3000000000012483 0.0
0.0 0.2875000000011962 0.0
0.0 0.2750000000011442 0.0
0.0 0.2625000000010922 0.0
0.0 0.2500000000010403 0.0
0.0 0.2375000000009883 0.0
0.0 0.2250000000009362 0.0
0.0 0.2125000000008842 0.0
0.0 0.2000000000008322 0.0
0.0 0.1875000000007802 0.0
0.0 0.1750000000007281 0.0
0.0 0.1625000000006761 0.0
0.0 0.1500000000006241 0.0
0.0 0.1375000000005721 0.0
0.0 0.12500000000052 0.0
0.0 0.112500000000468 0.0
0.0 0.100000000000416 0.0
0.0 0.08750000000036395 0.0
0.0 0.07500000000031193 0.0
0.0 0.06250000000026001 0.0
0.0 0.05000000000020799 0.0
0.0 0.03750000000015596 0.0
0.0 0.02500000000010394 0.0
0.0 0.01250000000005191 0.0
0.499547313951317 0.4984202829398231 0.0
0.7057142553715264 0.7049957919913439 0.0
0.2942617789825218 0.706558362574613 0.0
0.7052750732513358 0.29408370064617073 0.0
0.2941161372558304 0.29425664999463297 0.0
0.49473409022248005 0.7865288457870021 0.0
0.21400675843102512 0.49559804899934157 0.0
0.7879606576561358 0.5053778129282838 0.0
0.505369301426186 0.2119891966328729 0.0
0.8286074034533916 0.8287576993256224 0.0
0.17122528584787128 0.8286011816233976 0.0
0.8287577004551061 0.17139259539200086 0.0
0.17140751986106711 0.17123186221929698 0.0
0.6412438345717256 0.8516520873564006 0.0
0.14868333985619164 0.6419476520576217 0.0
0.36001439100831745 0.8471882363166383 0.0
0.8472916681795735 0.639858398754968 0.0
0.8516551147624887 0.3587551765143301 0.0
0.1529024464427883 0.36006180552290556 0.0
0.3587547979315107 0.148343271772372 0.0
0.6398585806283599 0.15270777331315408 0.0
0.5665851234669081 0.6415505082226679 0.0
0.3688065763014604 0.5781443560211958 0.0
0.6448511073779454 0.4469929790001165 0.0
0.43335085497228876 0.35323599965884955 0.0
0.42653529248703315 0.6555720715037009 0.0
0.6657620768186652 0.5502649260729648 0.0
0.3566111211511165 0.42874186251021185 0.0
0.5447859278293945 0.34262223816401394 0.0
0.4594948214297615 0.8920313032464312 0.0
[...]
POINT_DATA 7905
VECTORS vector double
0.0 0.0 0.0
0.0 0.0 0.0
0.0 0.0 0.0
0.0 0.0 0.0
0.0 0.0 0.0
0.0 0.0 0.0
0.0 0.0 0.0
0.0 0.0 0.0
0.0 0.0 0.0
0.0 0.0 0.0
0.0 0.0 0.0
0.0 0.0 0.0
0.0 0.0 0.0
0.0 0.0 0.0
0.0 0.0 0.0
0.0 0.0 0.0
0.0 0.0 0.0
0.0 0.0 0.0
0.0 0.0 0.0
0.0 0.0 0.0
0.0 0.0 0.0
0.0 0.0 0.0
0.0 0.0 0.0
0.0 0.0 0.0
0.0 0.0 0.0
0.0 0.0 0.0
0.0 0.0 0.0
0.0 0.0 0.0
0.0 0.0 0.0
0.0 0.0 0.0
0.0 0.0 0.0
0.0 0.0 0.0
0.0 0.0 0.0
0.0 0.0 0.0
0.0 0.0 0.0
0.0 0.0 0.0
0.0 0.0 0.0
0.0 0.0 0.0
0.0 0.0 0.0
0.0 0.0 0.0
0.0 0.0 0.0
0.0 0.0 0.0
0.0 0.0 0.0
0.0 0.0 0.0
0.0 0.0 0.0
0.0 0.0 0.0
0.0 0.0 0.0
0.0 0.0 0.0
0.0 0.0 0.0
0.0 0.0 0.0
0.0 0.0 0.0
0.0 0.0 0.0
0.0 0.0 0.0
0.0 0.0 0.0
0.0 0.0 0.0
0.0 0.0 0.0
0.0 0.0 0.0
0.0 0.0 0.0
0.0 0.0 0.0
0.0 0.0 0.0
0.0 0.0 0.0
0.0 0.0 0.0
0.0 0.0 0.0
0.0 0.0 0.0
0.0 0.0 0.0
0.0 0.0 0.0
0.0 0.0 0.0
0.0 0.0 0.0
0.0 0.0 0.0
0.0 0.0 0.0
0.0 0.0 0.0
0.0 0.0 0.0
0.0 0.0 0.0
0.0 0.0 0.0
0.0 0.0 0.0
0.0 0.0 0.0
0.0 0.0 0.0
0.0 0.0 0.0
0.0 0.0 0.0
0.0 0.0 0.0
0.0 0.0 0.0
0.0 0.0 0.0
0.0 0.0 0.0
0.0 0.0 0.0
0.0 0.0 0.0
0.0 0.0 0.0
0.0 0.0 0.0
0.0 0.0 0.0
0.0 0.0 0.0
0.0 0.0 0.0
0.0 0.0 0.0
0.0 0.0 0.0
0.0 0.0 0.0
0.0 0.0 0.0
0.0 0.0 0.0
0.0 0.0 0.0
0.0 0.0 0.0
0.0 0.0 0.0
0.0 0.0 0.0
0.0 0.0 0.0
0.0 0.0 0.0
0.0 0.0 0.0
0.0 0.0 0.0
0.0 0.0 0.0
0.0 0.0 0.0
0.0 0.0 0.0
0.0 0.0 0.0
0.0 0.0 0.0
0.0 0.0 0.0
0.0 0.0 0.0
0.0 0.0 0.0
0.0 0.0 0.0
0.0 0.0 0.0
0.0 0.0 0.0
0.0 0.0 0.0
0.0 0.0 0.0
0.0 0.0 0.0
0.0 0.0 0.0
0.0 0.0 0.0
0.0 0.0 0.0
0.0 0.0 0.0
0.0 0.0 0.0
0.0 0.0 0.0
0.0 0.0 0.0
0.0 0.0 0.0
0.0 0.0 0.0
0.0 0.0 0.0
0.0 0.0 0.0
0.0 0.0 0.0
0.0 0.0 0.0
0.0 0.0 0.0
0.0 0.0 0.0
0.0 0.0 0.0
0.0 0.0 0.0
0.0 0.0 0.0
0.0 0.0 0.0
0.0 0.0 0.0
0.0 0.0 0.0
0.0 0.0 0.0
0.0 0.0 0.0
0.0 0.0 0.0
0.0 0.0 0.0
0.0 0.0 0.0
0.0 0.0 0.0
0.0 0.0 0.0
0.0 0.0 0.0
0.0 0.0 0.0
0.0 0.0 0.0
0.0 0.0 0.0
0.0 0.0 0.0
0.0 0.0 0.0
0.0 0.0 0.0
0.0 0.0 0.0
0.0 0.0 0.0
0.0 0.0 0.0
0.0 0.0 0.0
0.0 0.0 0.0
0.0 0.0 0.0
0.0 0.0 0.0
0.0 0.0 0.0
0.0 0.0 0.0
0.0 0.0 0.0
1.0 0.0 0.0
1.0 0.0 0.0
1.0 0.0 0.0
1.0 0.0 0.0
1.0 0.0 0.0
1.0 0.0 0.0
1.0 0.0 0.0
1.0 0.0 0.0
1.0 0.0 0.0
1.0 0.0 0.0
1.0 0.0 0.0
1.0 0.0 0.0
1.0 0.0 0.0
1.0 0.0 0.0
1.0 0.0 0.0
1.0 0.0 0.0
1.0 0.0 0.0
1.0 0.0 0.0
1.0 0.0 0.0
1.0 0.0 0.0
1.0 0.0 0.0
1.0 0.0 0.0
1.0 0.0 0.0
1.0 0.0 0.0
1.0 0.0 0.0
1.0 0.0 0.0
1.0 0.0 0.0
1.0 0.0 0.0
1.0 0.0 0.0
1.0 0.0 0.0
1.0 0.0 0.0
1.0 0.0 0.0
1.0 0.0 0.0
1.0 0.0 0.0
1.0 0.0 0.0
1.0 0.0 0.0
1.0 0.0 0.0
1.0 0.0 0.0
1.0 0.0 0.0
1.0 0.0 0.0
1.0 0.0 0.0
1.0 0.0 0.0
1.0 0.0 0.0
1.0 0.0 0.0
1.0 0.0 0.0
1.0 0.0 0.0
1.0 0.0 0.0
1.0 0.0 0.0
1.0 0.0 0.0
1.0 0.0 0.0
1.0 0.0 0.0
1.0 0.0 0.0
1.0 0.0 0.0
1.0 0.0 0.0
1.0 0.0 0.0
1.0 0.0 0.0
1.0 0.0 0.0
1.0 0.0 0.0
1.0 0.0 0.0
1.0 0.0 0.0
1.0 0.0 0.0
1.0 0.0 0.0
1.0 0.0 0.0
1.0 0.0 0.0
1.0 0.0 0.0
1.0 0.0 0.0
1.0 0.0 0.0
1.0 0.0 0.0
1.0 0.0 0.0
1.0 0.0 0.0
1.0 0.0 0.0
1.0 0.0 0.0
1.0 0.0 0.0
1.0 0.0 0.0
1.0 0.0 0.0
1.0 0.0 0.0
1.0 0.0 0.0
1.0 0.0 0.0
1.0 0.0 0.0
0.0 0.0 0.0
0.0 0.0 0.0
0.0 0.0 0.0
0.0 0.0 0.0
0.0 0.0 0.0
0.0 0.0 0.0
0.0 0.0 0.0
0.0 0.0 0.0
0.0 0.0 0.0
0.0 0.0 0.0
0.0 0.0 0.0
0.0 0.0 0.0
0.0 0.0 0.0
0.0 0.0 0.0
0.0 0.0 0.0
0.0 0.0 0.0
0.0 0.0 0.0
0.0 0.0 0.0
0.0 0.0 0.0
0.0 0.0 0.0
0.0 0.0 0.0
0.0 0.0 0.0
0.0 0.0 0.0
0.0 0.0 0.0
0.0 0.0 0.0
0.0 0.0 0.0
0.0 0.0 0.0
0.0 0.0 0.0
0.0 0.0 0.0
0.0 0.0 0.0
0.0 0.0 0.0
0.0 0.0 0.0
0.0 0.0 0.0
0.0 0.0 0.0
0.0 0.0 0.0
0.0 0.0 0.0
0.0 0.0 0.0
0.0 0.0 0.0
0.0 0.0 0.0
0.0 0.0 0.0
0.0 0.0 0.0
0.0 0.0 0.0
0.0 0.0 0.0
0.0 0.0 0.0
0.0 0.0 0.0
0.0 0.0 0.0
0.0 0.0 0.0
0.0 0.0 0.0
0.0 0.0 0.0
0.0 0.0 0.0
0.0 0.0 0.0
0.0 0.0 0.0
0.0 0.0 0.0
0.0 0.0 0.0
0.0 0.0 0.0
0.0 0.0 0.0
0.0 0.0 0.0
0.0 0.0 0.0
0.0 0.0 0.0
0.0 0.0 0.0
0.0 0.0 0.0
0.0 0.0 0.0
0.0 0.0 0.0
0.0 0.0 0.0
0.0 0.0 0.0
0.0 0.0 0.0
0.0 0.0 0.0
0.0 0.0 0.0
0.0 0.0 0.0
0.0 0.0 0.0
0.0 0.0 0.0
0.0 0.0 0.0
0.0 0.0 0.0
0.0 0.0 0.0
0.0 0.0 0.0
0.0 0.0 0.0
0.0 0.0 0.0
0.0 0.0 0.0
0.0 0.0 0.0
-0.213334463802 0.0559823145597 0.0
-0.10197634788 -0.161196392859 0.0
-0.0525533338649 0.234179079822 0.0
-0.120812678989 -0.0812138349861 0.0
-0.100655686581 0.0698735067598 0.0
0.0882211428315 0.109338841311 0.0
-0.0762125299007 0.175401700449 0.0
-0.18741412254 -0.253514472731 0.0
-0.119974698539 -0.0021543068851 0.0
0.0424948300385 -0.314181330247 0.0
-0.055229728874 0.24498912635 0.0
-0.0233427701567 -0.0232211977644 0.0
-0.0304133672148 0.025755511944 0.0
0.283707736779 -0.0100642238493 0.0
-0.0373938942096 0.220547913196 0.0
0.120601440444 0.138546691026 0.0
-0.164875719562 -0.401671976145 0.0
-0.0588462863623 -0.10384784526 0.0
-0.0442816709914 0.095090986404 0.0
-0.0726526953732 0.0165027016332 0.0
-0.0723030331388 -0.0211408181027 0.0
-0.139149635954 0.0337359351724 0.0
-0.128242270073 0.182361502727 0.0
-0.234258423856 -0.106047751805 0.0
-0.171927509582 0.0500300589302 0.0
-0.0918125102709 0.169082135273 0.0
-0.242695486373 -0.137904670351 0.0
-0.152795303117 0.117511198519 0.0
-0.189749206009 -0.0175966838753 0.0
0.38961920673 0.0614863342364 0.0
-0.0249625603126 0.120096244577 0.0
-0.0804963710512 -0.241811220185 0.0
-0.0798169918129 -0.00416125173806 0.0
0.443496211508 -0.0612832046994 0.0
-0.0273378907216 0.211899362392 0.0
-0.0133508283224 -0.0296583422013 0.0
-0.0345269727198 0.00994216965461 0.0
-0.105209795249 -0.487700349054 0.0
0.164181702597 0.116781906809 0.0
-0.030098779281 -0.0116534765264 0.0
-0.0175348427884 0.0408907124021 0.0
0.067537183501 0.012091267366 0.0
-0.064523842963 0.226249182166 0.0
-0.157163901187 -0.150143970028 0.0
-0.131158695125 0.0350737265351 0.0
0.0061269830123 0.183392257336 0.0
-0.21633289674 -0.268678389591 0.0
-0.0974377261563 0.121843993729 0.0
-0.135193098152 -0.0382577848953 0.0
0.0713725232724 -0.366893445074 0.0
-0.0805452434308 0.255551298711 0.0
-0.00179915412315 -0.00202005659336 0.0
-0.00514553561868 0.00479896720864 0.0
0.536008311691 0.0155308898347 0.0
-0.0147271900378 0.13829945074 0.0
-0.0310720461022 -0.100245151833 0.0
-0.0509620418811 0.00303628208405 0.0
-0.127077145594 -0.340759078387 0.0
-0.0126018060118 0.215863622481 0.0
-0.0707716678416 -0.0440293387925 0.0
-0.0601480001027 0.0665958298761 0.0
0.0850813539678 -0.132031102131 0.0
-0.0486153564285 0.252968898356 0.0
-0.0634433224516 -0.0715612881475 0.0
-0.0702188440051 0.0371160441974 0.0
-0.161573888367 0.106570215221 0.0
-0.226796330683 -0.0197817829353 0.0
-0.173939109124 0.125900763937 0.0
-0.227626561816 -0.0213259786172 0.0
-0.173460582579 -0.0869261102513 0.0
-0.0813703509005 0.210967029983 0.0
-0.184034292653 -0.0791512763505 0.0
-0.136326048694 0.0837352904945 0.0
0.623178214532 -0.00762810937843 0.0
-0.0105964603238 0.141513753985 0.0
-0.0117226596609 -0.0431366196949 0.0
-0.0347936933112 0.00409108527325 0.0
-0.0622667018405 -0.303523025262 0.0
-0.0352915626467 -0.00582350494736 0.0
0.424636253276 0.051078178323 0.0
-0.0123110519256 0.0584187016869 0.0
0.406452624859 -0.110473617522 0.0
-0.0473192331717 0.230636176398 0.0
-0.0036719427273 -0.00674256522715 0.0
-0.0131187625833 0.00574390694256 0.0
-0.0747609605003 -0.531847639198 0.0
-0.00741534710581 -0.00490654635483 0.0
0.107365998522 0.134440393006 0.0
-0.00732875067855 0.0142159488901 0.0
-0.0523951450138 0.114340107848 0.0
-0.121405875334 0.172751625571 0.0
-0.232929999231 -0.192582019004 0.0
-0.156862180548 0.00433612265487 0.0
0.225486827464 0.0528463983876 0.0
-0.0482237277086 0.193815096906 0.0
-0.107440587192 -0.186720115866 0.0
-0.0921713090526 0.00807947051251 0.0
0.111072364266 0.132068781642 0.0
-0.0611596553348 0.135243498652 0.0
-0.185344447758 -0.32685615712 0.0
-0.0989770563758 -0.0164537771901 0.0
-0.201190328658 0.0578220881489 0.0
-0.20320777609 0.0159115016196 0.0
-0.210164439404 -0.0217809353854 0.0
-0.217283557441 0.0183013936904 0.0
-0.000255225899277 0.000271959078494 0.0
-0.000148762933946 0.000337776862086 0.0
-0.00248607850827 0.00128371443987 0.0
-0.00074382961382 0.000337623388432 0.0
0.366195106372 -0.146182143241 0.0
0.0613267718444 -0.372458236539 0.0
-0.0681625776401 0.264374014493 0.0
-0.062280336747 0.279679690179 0.0
-0.000573540875594 -0.00048388241386 0.0
-0.00139093437006 0.00199582632079 0.0
-0.0527300221295 -0.515917487438 0.0
0.113489606532 0.148994473658 0.0
-0.185834375556 0.0179486488299 0.0
-0.188289287981 0.0544322070606 0.0
-0.0753831664886 0.146652273758 0.0
-0.0205312298193 0.151421141736 0.0
-0.0532009771994 0.177795005384 0.0
-0.24464021744 -0.171778997167 0.0
-0.236316309473 -0.226521741006 0.0
-0.23496695776 -0.189156599751 0.0
-0.13745566176 0.145606920379 0.0
-0.112728452368 0.152109178177 0.0
-0.12725812559 0.126911974867 0.0
-0.171690437656 -0.0063230629456 0.0
-0.151129299703 -0.0167715818954 0.0
-0.165445389065 -0.0342301611726 0.0
-0.153272951364 0.155443863954 0.0
-0.175802552439 0.121022858914 0.0
-0.147264634345 0.150934987247 0.0
-0.122094249767 0.145093937174 0.0
-0.1165989354 0.176281910039 0.0
-0.244540567193 -0.0692620985458 0.0
-0.237210300146 -0.0216446969375 0.0
-0.23318832647 -0.062260972574 0.0
-0.24695051951 -0.120087377145 0.0
-0.23878963582 -0.0845217215984 0.0
0.0143455595299 0.114882616278 0.0
0.0362942198347 0.14440940123 0.0
-0.0983228602409 0.178938961051 0.0
-0.0898188710746 0.15355839002 0.0
-0.215951961504 -0.225542681261 0.0
-0.219109245662 -0.272484492692 0.0
-0.140223117563 0.000782547020809 0.0
-0.129839090271 -0.0159673691901 0.0
-0.0546016329504 0.232317128836 0.0
-0.0569329834982 0.245001255746 0.0
-0.0450112905899 0.243205645595 0.0
0.144686258368 -0.00322665535274 0.0
0.0613144786732 -0.060964521629 0.0
0.187625823093 -0.0558996223003 0.0
-0.0954002684597 0.0253550794833 0.0
-0.0950479282568 0.0392607027936 0.0
-0.074039353459 0.0261960989397 0.0
-0.101089314201 -0.133227413031 0.0
-0.101554487012 -0.108132073834 0.0
-0.0630818691006 -0.0890684724725 0.0
-0.0512256879062 0.245875973397 0.0
-0.0661747382689 0.237550099758 0.0
-0.0228177593677 -0.147350920762 0.0
-0.0443983771926 -0.0779825870977 0.0
-0.0875648598187 0.0534859351037 0.0
-0.11190437244 0.05548288258 0.0
-0.095102989843 -0.0823166905249 0.0
-0.134971287479 -0.10705826014 0.0
-0.170550916204 -0.40171032643 0.0
-0.180239376099 -0.313354160301 0.0
-0.198197727908 -0.355008815313 0.0
0.0416925469039 0.178557829991 0.0
-0.00176606972328 0.202975209452 0.0
0.0480855629025 0.170755002196 0.0
-0.0732666833097 -0.0320051116976 0.0
-0.100645351352 -0.0466445365309 0.0
-0.0974956318786 -0.0314374729793 0.0
-0.0531809226935 0.0820732390507 0.0
-0.077733039632 0.0916654751511 0.0
-0.0679055181702 0.108549521092 0.0
-0.17850045956 0.0931098624544 0.0
-0.166868597536 0.0843940474079 0.0
0.64984631715 0.0186699446833 0.0
0.675643914797 0.0148700048511 0.0
-0.00632310357926 0.060085756383 0.0
-0.0063903511604 0.0742349666548 0.0
-0.0230918349259 -0.147754551255 0.0
-0.0191422066148 -0.109475529349 0.0
-0.0338990050243 -0.00163465966016 0.0
-0.0373084208979 -0.000506274289109 0.0
-0.0209380640324 -0.168958387827 0.0
-0.0712299614877 -0.278821178329 0.0
-0.0242206456886 -0.00192608538114 0.0
-0.0485711275298 -0.00606893343878 0.0
0.665009190252 0.0172608571225 0.0
0.397616034432 0.0564737962861 0.0
-0.00448367621994 0.0412149712787 0.0
-0.0175236051298 0.0820638867683 0.0
-0.233970039408 -0.151402632105 0.0
-0.166533306735 0.0226879432957 0.0
-0.171254608441 -0.22026353129 0.0
-0.114764169785 -0.241630978273 0.0
-0.0361772206799 0.216082411979 0.0
-0.0344833017641 0.230292213706 0.0
-0.12753854613 -0.0627596879059 0.0
-0.0961777010082 -0.0629666627053 0.0
-0.100599818728 0.0909445161444 0.0
-0.0820781292156 0.0710196238652 0.0
-0.0853041853015 0.19229392178 0.0
-0.103363859465 0.201514659507 0.0
-0.144072976959 0.100980792095 0.0
-0.153540289283 0.0711423965271 0.0
-0.189437553338 0.0948303204724 0.0
-0.164071052243 0.125480039802 0.0
-0.197536672518 0.0776705071188 0.0
-0.196149190501 0.091828741455 0.0
-0.22594474405 0.0193729212137 0.0
-0.221724812957 0.0264138550945 0.0
-0.129931441828 -0.342285953586 0.0
-0.114630434226 -0.382566849469 0.0
-0.0700994737978 -0.0119800603858 0.0
-0.0525108611181 -0.012075096225 0.0
0.223832171336 0.0995029642546 0.0
0.244155556561 0.0942499471444 0.0
-0.0353632394367 0.107418238311 0.0
-0.0255923484615 0.0789762191079 0.0
0.721172306376 -0.0155468477444 0.0
0.677416160122 -0.0264276295429 0.0
-0.00735656393176 0.118650561974 0.0
-0.0116768773573 0.138537757668 0.0
-0.00241332231842 -0.0121098456699 0.0
-0.00195817383118 -0.00672621669879 0.0
-0.0183130078617 0.00235891251713 0.0
-0.0140574501351 0.00255433073698 0.0
-0.0417644578788 -0.37332573382 0.0
-0.0358039404988 -0.30309170524 0.0
-0.010385720542 -0.00285627083388 0.0
-0.0160569112148 -0.0030163757364 0.0
0.452969063537 0.0438375226582 0.0
0.529480854017 0.0327324785074 0.0
-0.00397134434485 0.0168813233696 0.0
-0.00448479783564 0.0247434804599 0.0
0.467384449498 0.0332807225708 0.0
0.731315173589 0.0071693865643 0.0
-0.0190218972144 0.13098951621 0.0
-0.00462709347341 0.0782240011284 0.0
-0.0488014507844 -0.153217343193 0.0
-0.0119232479666 -0.0678435879593 0.0
-0.0587515033887 0.000721725011892 0.0
-0.0322145289222 0.000616772356173 0.0
-0.140953039883 -0.450270810319 0.0
-0.133044651383 -0.443499943275 0.0
0.126475842683 0.134497265521 0.0
0.0274945718973 0.18330310763 0.0
-0.0507502894846 -0.0186061937415 0.0
-0.048295213807 -0.0266022876663 0.0
-0.0313200259661 0.0679269809448 0.0
-0.0380657212551 0.0567698670833 0.0
0.155143388676 0.0783490849154 0.0
0.27960585103 0.0632259753384 0.0
0.185463445878 0.0944136127265 0.0
-0.0610372782543 0.188232994689 0.0
-0.0391894353587 0.164287814831 0.0
-0.052520537588 0.159000737539 0.0
-0.145518382019 -0.222993772093 0.0
-0.0999343297186 -0.212618756064 0.0
-0.144629635492 -0.266853832531 0.0
-0.106103437378 0.00501857958877 0.0
-0.0830769612511 0.0010592723415 0.0
-0.0959484733713 -0.00429554306961 0.0
-0.152428435373 -0.017189246141 0.0
-0.0958756370794 -0.0390798478798 0.0
-0.0822138516761 0.0256432698832 0.0
-0.0851587820575 0.222016578352 0.0
-0.104733337502 0.20687601851 0.0
-0.210460494418 -0.0947199908334 0.0
-0.176544417913 -0.11296007497 0.0
-0.20653995696 -0.135911720725 0.0
-0.134828853379 0.0603652604644 0.0
-0.151198622759 0.0438676877633 0.0
0.230466053592 -0.154803140963 0.0
0.227354861574 -0.104934940924 0.0
0.0787903520063 -0.210997168298 0.0
-0.0503242514731 0.251845372625 0.0
-0.0428534605048 0.248073023221 0.0
-0.0500310840144 0.253614385527 0.0
-0.0199177442396 -0.0296162515736 0.0
-0.0353187189748 -0.0531022636332 0.0
-0.039464112343 -0.0439883199357 0.0
-0.0352377726149 0.0183117004834 0.0
-0.052527465383 0.0225653438093 0.0
-0.0491817882351 0.0326602799813 0.0
-0.136339290804 -0.124480208792 0.0
-0.0648693075943 0.224172044105 0.0
-0.151598644368 -0.0854229692669 0.0
-0.119217377663 0.077774027469 0.0
-0.187142446734 0.0109109538708 0.0
-0.206952466044 -0.0514748220244 0.0
-0.220918814172 -0.120339918979 0.0
-0.212338615837 -0.0573137144335 0.0
-0.187808511497 -0.0487644941996 0.0
0.769269030039 0.0018058978266 0.0
-0.00337988463782 0.0800318552647 0.0
-0.00748027681996 -0.0415473553694 0.0
-0.0261733144832 0.00116227769709 0.0
0.10505335892 0.125853290903 0.0
0.0605110782324 0.153759247126 0.0
-0.187626449922 -0.297643651737 0.0
-0.207716196884 -0.319973470036 0.0
-0.067889313887 0.151251962415 0.0
-0.0750887782513 0.132712576368 0.0
-0.108945417211 -0.0120171913808 0.0
-0.111549079558 -0.0234052294808 0.0
0.422849703531 -0.090794167718 0.0
0.647324348462 -0.0356692628697 0.0
-0.037219282058 0.221998656309 0.0
-0.0172982947329 0.153287503189 0.0
-0.00713150733942 -0.0144891610126 0.0
-0.0011093837718 -0.00253310107157 0.0
-0.0214967558023 0.00805893108081 0.0
-0.00835192964495 0.0020339722219 0.0
-0.0410362898423 -0.411355635365 0.0
-0.0893356731994 -0.520652400241 0.0
-0.00467372792925 -0.00190371605694 0.0
-0.0151534159068 -0.0081560864864 0.0
0.415870838512 0.0507791671021 0.0
0.124196666153 0.128031351268 0.0
-0.00261326925745 0.00935034878554 0.0
-0.0116363133789 0.0242547983411 0.0
-0.0314701107586 0.222709769479 0.0
0.3481466369 -0.0430253400513 0.0
-0.0540802536598 0.0149759433526 0.0
-0.0325163489933 -0.0632097033387 0.0
-0.0570570275364 -0.344508382923 0.0
-0.0910585494736 -0.463722864089 0.0
-0.0325289782052 0.2291794022 0.0
0.00202215728612 0.192486928141 0.0
-0.044409791833 -0.0354633215672 0.0
-0.0283547121333 -0.0192522055743 0.0
-0.0444897730083 0.0446371408416 0.0
-0.0261524103045 0.0362839551685 0.0
-0.00062448712946 -0.000578880790272 0.0
0.559763649108 -0.0613810915076 0.0
-0.00479218671057 0.00169031603323 0.0
-0.032661745602 0.193943411522 0.0
-0.0485295384897 -0.472734616355 0.0
-0.00179184820315 -0.00120039786837 0.0
0.308268056217 0.0768417711987 0.0
-0.00190534195712 0.00480570503075 0.0
0.35058876 0.0359466854874 0.0
-0.0313068653145 0.174731266226 0.0
-0.0684107286914 -0.154320970988 0.0
-0.0734799156669 0.00542369706041 0.0
-0.00329621033895 -0.00460494973536 0.0
-0.0098267578068 0.00617434158418 0.0
0.256438870934 -0.19996302219 0.0
-0.0736904933356 0.259802324789 0.0
-0.0441007751151 -0.501237890621 0.0
-0.00474263015113 -0.0042422112544 0.0
-0.00694379006099 0.191486367018 0.0
-0.00716886449062 0.00984075695404 0.0
-0.0315410349475 -0.237187333268 0.0
-0.0417729885027 0.243844141712 0.0
-0.0660629478507 -0.0567088874836 0.0
-0.0652497716095 0.0506225828127 0.0
-0.0227452059329 0.0721530686215 0.0
-0.096282745727 0.0737491558211 0.0
-0.101972333124 0.199648745596 0.0
-0.12721097876 0.182434596495 0.0
-0.207581786442 -0.179127694624 0.0
-0.145654213798 0.0213105775916 0.0
0.180184611537 0.107885694069 0.0
-0.0481647439997 0.134263942736 0.0
0.117340089511 0.136080405838 0.0
-0.05487755241 0.119356528516 0.0
-0.15109149071 -0.313480889473 0.0
-0.0877233923282 -0.0109055169759 0.0
-0.178452073 -0.356600824482 0.0
-0.0894264932056 -0.0194579866672 0.0
0.776245366717 -0.00622244875539 0.0
0.547253473954 -0.023464179305 0.0
-0.00420680358029 0.0928614428358 0.0
-0.0163203969286 0.173365242862 0.0
0.30982025228 0.0747763537535 0.0
0.44978930662 -0.0105216999938 0.0
-0.0220695542395 0.188910807218 0.0
-0.0848880456324 -0.394821808487 0.0
-0.0147016082285 0.0513176305575 0.0
-0.0334553941165 -0.00850245924813 0.0
0.631213482474 0.0205401850878 0.0
-0.0243231654832 -0.21531145442 0.0
-0.00392641386876 0.0305751746032 0.0
-0.0187655780826 -0.00228898094768 0.0
-0.00248838977819 -0.0170516913854 0.0
-0.0126806165386 -0.0381345593767 0.0
-0.0187418726666 0.0015872822027 0.0
-0.0359694350424 0.00655121556697 0.0
-0.0290705972044 -0.071493388409 0.0
-0.0522337383681 0.00903498603767 0.0
0.0611542958688 0.0760553372347 0.0
-0.0811551876721 0.201651197419 0.0
-0.178418686229 -0.203855981971 0.0
-0.126322765601 0.0134380835928 0.0
-0.114511423321 0.111294902094 0.0
-0.154569585718 0.0673542812268 0.0
-0.147662118305 0.154355314269 0.0
0.221281557683 -0.197789317061 0.0
-0.0631315934091 0.255092156952 0.0
-0.0541025766019 -0.471308748887 0.0
-0.010276465081 -0.0147697907947 0.0
-0.0196063970444 0.20064217491 0.0
-0.0213703576414 0.0129927173821 0.0
-0.0142343857158 -0.0114926316794 0.0
-0.0163068586132 0.0213551945531 0.0
0.245846665336 0.0252424517164 0.0
0.132617521103 0.0449755152472 0.0
-0.0439772749071 0.209294728492 0.0
-0.0628408700448 0.213883360144 0.0
-0.132719851512 -0.17776062427 0.0
-0.0860338295127 -0.146974877149 0.0
-0.085871829035 0.0135527559025 0.0
-0.107549964759 0.0170721093072 0.0
-0.0546853629355 0.203772032284 0.0
-0.201575903355 -0.173529185745 0.0
-0.121413032302 0.102929016217 0.0
-0.158242324248 -0.0591425232067 0.0
0.0647711763403 -0.345423449387 0.0
-0.0715642098035 0.246540333911 0.0
-0.00865223794185 -0.00955380255543 0.0
-0.0148478293256 0.0134800033182 0.0
-0.19703639485 0.0470511476095 0.0
0.583154610966 0.00212168082734 0.0
0.791983476955 -0.00192759312992 0.0
-0.0121177852818 0.142675739691 0.0
-0.00301862516832 0.0811510348683 0.0
0.39631027156 0.0119088292068 0.0
-0.0264698284693 0.18545107508 0.0
-0.0197584914271 -0.0661399300612 0.0
-0.00421101053048 -0.0255522475168 0.0
-0.0429758110011 0.00405117854433 0.0
-0.020787973046 0.00128811849428 0.0