# vtk DataFile Version 2.0
2D Simulation Python
ASCII
DATASET UNSTRUCTURED_GRID
FIELD FieldData 1
NODES 1 2 int
7905 15488

POINTS 7905 double
0.0 0.0 0.0
1.0 0.0 0.0
1.0 1.0 0.0
0.0 1.0 0.0
0.01249999999997639 0.0 0.0
0.02499999999995297 0.0 0.0
0.03749999999992721 0.0 0.0
0.04999999999989927 0.0 0.0
0.0624999999998716 0.0 0.0
0.07499999999985263 0.0 0.0
0.08749999999983366 0.0 0.0
0.09999999999981467 0.0 0.0
0.1124999999997956 0.0 0.0
0.1249999999997765 0.0 0.0
0.1374999999997401 0.0 0.0
0.1499999999997036 0.0 0.0
0.1624999999996672 0.0 0.0
0.1749999999996308 0.0 0.0
0.1874999999995943 0.0 0.0
0.1999999999995579 0.0 0.0
0.2124999999995214 0.0 0.0
0.224999999999485 0.0 0.0
0.2374999999994485 0.0 0.0
0.2499999999994121 0.0 0.0
0.2624999999993757 0.0 0.0
0.2749999999993393 0.0 0.0
0.2874999999993028 0.0 0.0
0.2999999999992664 0.0 0.0
0.3124999999992299 0.0 0.0
0.3249999999991935 0.0 0.0
0.3374999999991571 0.0 0.0
0.3499999999991207 0.0 0.0
0.3624999999990842 0.0 0.0
0.3749999999990478 0.0 0.0
0.3874999999990113 0.0 0.0
0.3999999999989749 0.0 0.0
0.4124999999989398 0.0 0.0
0.4249999999989048 0.0 0.0
0.4374999999988697 0.0 0.0
0.4499999999988346 0.0 0.0
0.4624999999987995 0.0 0.0
0.4749999999987644 0.0 0.0
0.4874999999987293 0.0 0.0
0.4999999999986943 0.0 0.0
0.5124999999987259 0.0 0.0
0.5249999999987575 0.0 0.0
0.5374999999987891 0.0 0.0
0.5499999999988205 0.0 0.0
0.5624999999988521 0.0 0.0
0.5749999999988837 0.0 0.0
0.5874999999989152 0.0 0.0
0.5999999999989468 0.0 0.0
0.6124999999989797 0.0 0.0
0.6249999999990127 0.0 0.0
0.6374999999990456 0.0 0.0
0.6499999999990784 0.0 0.0
0.6624999999991114 0.0 0.0
0.6749999999991443 0.0 0.0
0.6874999999991771 0.0 0.0
0.69999999999921 0.0 0.0
0.712499999999243 0.0 0.0
0.7249999999992759 0.0 0.0
0.7374999999993088 0.0 0.0
0.7499999999993416 0.0 0.0
0.7624999999993746 0.0 0.0
0.7749999999994075 0.0 0.0
0.7874999999994404 0.0 0.0
0.7999999999994734 0.0 0.0
0.8124999999995063 0.0 0.0
0.8249999999995392 0.0 0.0
0.8374999999995721 0.0 0.0
0.8499999999996051 0.0 0.0
0.862499999999638 0.0 0.0
0.8749999999996709 0.0 0.0
0.8874999999997039 0.0 0.0
0.8999999999997368 0.0 0.0
0.9124999999997697 0.0 0.0
0.9249999999998026 0.0 0.0
0.9374999999998355 0.0 0.0
0.9499999999998684 0.0 0.0
0.9624999999999013 0.0 0.0
0.9749999999999343 0.0 0.0
0.9874999999999672 0.0 0.0
1.0 0.01249999999997639 0.0
1.0 0.02499999999995297 0.0
1.0 0.03749999999992721 0.0
1.0 0.04999999999989927 0.0
1.0 0.0624999999998716 0.0
1.0 0.07499999999985263 0.0
1.0 0.08749999999983366 0.0
1.0 0.09999999999981467 0.0
1.0 0.1124999999997956 0.0
1.0 0.1249999999997765 0.0
1.0 0.1374999999997401 0.0
1.0 0.1499999999997036 0.0
1.0 0.1624999999996672 0.0
1.0 0.1749999999996308 0.0
1.0 0.1874999999995943 0.0
1.0 0.1999999999995579 0.0
1.0 0.2124999999995214 0.0
1.0 0.224999999999485 0.0
1.0 0.2374999999994485 0.0
1.0 0.2499999999994121 0.0
1.0 0.2624999999993757 0.0
1.0 0.2749999999993393 0.0
1.0 0.2874999999993028 0.0
1.0 0.2999999999992664 0.0
1.0 0.3124999999992299 0.0
1.0 0.3249999999991935 0.0
1.0 0.3374999999991571 0.0
1.0 0.3499999999991207 0.0
1.0 0.3624999999990842 0.0
1.0 0.3749999999990478 0.0
1.0 0.3874999999990113 0.0
1.0 0.3999999999989749 0.0
1.0 0.4124999999989398 0.0
1.0 0.4249999999989048 0.0
1.0 0.4374999999988697 0.0
1.0 0.4499999999988346 0.0
1.0 0.4624999999987995 0.0
1.0 0.4749999999987644 0.0
1.0 0.4874999999987293 0.0
1.0 0.4999999999986943 0.0
1.0 0.5124999999987259 0.0
1.0 0.5249999999987575 0.0
1.0 0.5374999999987891 0.0
1.0 0.5499999999988205 0.0
1.0 0.5624999999988521 0.0
1.0 0.5749999999988837 0.0
1.0 0.5874999999989152 0.0
1.0 0.5999999999989468 0.0
1.0 0.6124999999989797 0.0
1.0 0.6249999999990127 0.0
1.0 0.6374999999990456 0.0
1.0 0.6499999999990784 0.0
1.0 0.6624999999991114 0.0
1.0 0.6749999999991443 0.0
1.0 0.6874999999991771 0.0
1.0 0.69999999999921 0.0
1.0 0.712499999999243 0.0
1.0 0.7249999999992759 0.0
1.0 0.7374999999993088 0.0
1.0 0.7499999999993416 0.0
1.0 0.7624999999993746 0.0
1.0 0.7749999999994075 0.0
1.0 0.7874999999994404 0.0
1.0 0.7999999999994734 0.0
1.0 0.8124999999995063 0.0
1.0 0.8249999999995392 0.0
1.0 0.8374999999995721 0.0
1.0 0.8499999999996051 0.0
1.0 0.862499999999638 0.0
1.0 0.8749999999996709 0.0
1.0 0.8874999999997039 0.0
1.0 0.8999999999997368 0.0
1.0 0.9124999999997697 0.0
1.0 0.9249999999998026 0.0
1.0 0.9374999999998355 0.0
1.0 0.9499999999998684 0.0
1.0 0.9624999999999013 0.0
1.0 0.9749999999999343 0.0
1.0 0.9874999999999672 0.0
0.9874999999999439 1.0 0.0
0.9749999999998877 1.0 0.0
0.9624999999998541 1.0 0.0
0.9499999999998356 1.0 0.0
0.9374999999997805 1.0 0.0
0.9249999999996992 1.0 0.0
0.9124999999996414 1.0 0.0
0.8999999999995836 1.0 0.0
0.8874999999996454 1.0 0.0
0.8749999999997078 1.0 0.0
0.8624999999997771 1.0 0.0
0.8499999999998515 1.0 0.0
0.837499999999895 1.0 0.0
0.8249999999999216 1.0 0.0
0.8124999999999571 1.0 0.0
0.7999999999999998 1.0 0.0
0.7875000000000937 1.0 0.0
0.77500000000021 1.0 0.0
0.7625000000002968 1.0 0.0
0.7500000000003858 1.0 0.0
0.7375000000004739 1.0 0.0
0.7250000000005448 1.0 0.0
0.7125000000005861 1.0 0.0
0.7000000000006934 1.0 0.0
0.6875000000008109 1.0 0.0
0.6750000000009306 1.0 0.0
0.6625000000010091 1.0 0.0
0.6500000000010593 1.0 0.0
0.6375000000011386 1.0 0.0
0.6250000000012101 1.0 0.0
0.612500000001312 1.0 0.0
0.6000000000013869 1.0 0.0
0.5875000000014601 1.0 0.0
0.5750000000015277 1.0 0.0
0.5625000000016089 1.0 0.0
0.5500000000016854 1.0 0.0
0.5375000000017889 1.0 0.0
0.5250000000018821 1.0 0.0
0.5125000000019756 1.0 0.0
0.5000000000020587 1.0 0.0
0.4875000000020093 1.0 0.0
0.4750000000019601 1.0 0.0
0.4625000000019108 1.0 0.0
0.4500000000018616 1.0 0.0
0.4375000000018123 1.0 0.0
0.425000000001763 1.0 0.0
0.4125000000017136 1.0 0.0
0.4000000000016644 1.0 0.0
0.3875000000016123 1.0 0.0
0.3750000000015603 1.0 0.0
0.3625000000015083 1.0 0.0
0.3500000000014563 1.0 0.0
0.3375000000014042 1.0 0.0
0.3250000000013522 1.0 0.0
0.3125000000013003 1.0 0.0
0.3000000000012483 1.0 0.0
0.2875000000011962 1.0 0.0
0.2750000000011442 1.0 0.0
0.2625000000010922 1.0 0.0
0.2500000000010403 1.0 0.0
0.2375000000009883 1.0 0.0
0.2250000000009362 1.0 0.0
0.2125000000008842 1.0 0.0
0.2000000000008322 1.0 0.0
0.1875000000007802 1.0 0.0
0.1750000000007281 1.0 0.0
0.1625000000006761 1.0 0.0
0.1500000000006241 1.0 0.0
0.1375000000005721 1.0 0.0
0.12500000000052 1.0 0.0
0.112500000000468 1.0 0.0
0.100000000000416 1.0 0.0
0.08750000000036395 1.0 0.0
0.07500000000031193 1.0 0.0
0.06250000000026001 1.0 0.0
0.05000000000020799 1.0 0.0
0.03750000000015596 1.0 0.0
0.02500000000010394 1.0 0.0
0.01250000000005191 1.0 0.0
0.0 0.9874999999999439 0.0
0.0 0.9749999999998877 0.0
0.0 0.9624999999998541 0.0
0.0 0.9499999999998356 0.0
0.0 0.9374999999997805 0.0
0.0 0.9249999999996992 0.0
0.0 0.9124999999996414 0.0
0.0 0.8999999999995836 0.0
0.0 0.8874999999996454 0.0
0.0 0.8749999999997078 0.0
0.0 0.8624999999997771 0.0
0.0 0.8499999999998515 0.0
0.0 0.837499999999895 0.0
0.0 0.8249999999999216 0.0
0.0 0.8124999999999571 0.0
0.0 0.7999999999999998 0.0
0.0 0.7875000000000937 0.0
0.0 0.77500000000021 0.0
0.0 0.7625000000002968 0.0
0.0 0.7500000000003858 0.0
0.0 0.7375000000004739 0.0
0.0 0.7250000000005448 0.0
0.0 0.7125000000005861 0.0
0.0 0.7000000000006934 0.0
0.0 0.6875000000008109 0.0
0.0 0.6750000000009306 0.0
0.0 0.6625000000010091 0.0
0.0 0.6500000000010593 0.0
0.0 0.6375000000011386 0.0
0.0 0.6250000000012101 0.0
0.0 0.612500000001312 0.0
0.0 0.6000000000013869 0.0
0.0 0.5875000000014601 0.0
0.0 0.5750000000015277 0.0
0.0 0.5625000000016089 0.0
0.0 0.5500000000016854 0.0
0.0 0.5375000000017889 0.0
0.0 0.5250000000018821 0.0
0.0 0.5125000000019756 0.0
0.0 0.5000000000020587 0.0
0.0 0.4875000000020093 0.0
0.0 0.4750000000019601 0.0
0.0 0.4625000000019108 0.0
0.0 0.4500000000018616 0.0
0.0 0.4375000000018123 0.0
0.0 0.425000000001763 0.0
0.0 0.4125000000017136 0.0
0.0 0.4000000000016644 0.0
0.0 0.3875000000016123 0.0
0.0 0.3750000000015603 0.0
0.0 0.3625000000015083 0.0
0.0 0.3500000000014563 0.0
0.0 0.3375000000014042 0.0
0.0 0.3250000000013522 0.0
0.0 0.3125000000013003 0.0
0.0 0.3000000000012483 0.0
0.0 0.2875000000011962 0.0
0.0 0.2750000000011442 0.0
0.0 0.2625000000010922 0.0
0.0 0.2500000000010403 0.0
0.0 0.2375000000009883 0.0
0.0 0.2250000000009362 0.0
0.0 0.2125000000008842 0.0
0.0 0.2000000000008322 0.0
0.0 0.1875000000007802 0.0
0.0 0.1750000000007281 0.0
0.0 0.1625000000006761 0.0
0.0 0.1500000000006241 0.0
0.0 0.1375000000005721 0.0
0.0 0.12500000000052 0.0
0.0 0.112500000000468 0.0
0.0 0.100000000000416 0.0
0.0 0.08750000000036395 0.0
0.0 0.07500000000031193 0.0
0.0 0.06250000000026001 0.0
0.0 0.05000000000020799 0.0
0.0 0.03750000000015596 0.0
0.0 0.02500000000010394 0.0
0.0 0.01250000000005191 0.0
0.499547313951317 0.4984202829398231 0.0
0.7057142553715264 0.7049957919913439 0.0
0.2942617789825218 0.706558362574613 0.0
0.7052750732513358 0.29408370064617073 0.0
0.2941161372558304 0.29425664999463297 0.0
0.49473409022248005 0.7865288457870021 0.0
0.21400675843102512 0.49559804899934157 0.0
0.7879606576561358 0.5053778129282838 0.0
0.505369301426186 0.2119891966328729 0.0
0.8286074034533916 0.8287576993256224 0.0
0.17122528584787128 0.8286011816233976 0.0
0.8287577004551061 0.17139259539200086 0.0
0.17140751986106711 0.17123186221929698 0.0
0.6412438345717256 0.8516520873564006 0.0
0.14868333985619164 0.6419476520576217 0.0
0.36001439100831745 0.8471882363166383 0.0
0.8472916681795735 0.639858398754968 0.0
0.8516551147624887 0.3587551765143301 0.0
0.1529024464427883 0.36006180552290556 0.0
0.3587547979315107 0.148343271772372 0.0
0.6398585806283599 0.15270777331315408 0.0
0.5665851234669081 0.6415505082226679 0.0
0.3688065763014604 0.5781443560211958 0.0
0.6448511073779454 0.4469929790001165 0.0
0.43335085497228876 0.35323599965884955 0.0
0.42653529248703315 0.6555720715037009 0.0
0.6657620768186652 0.5502649260729648 0.0
0.3566111211511165 0.42874186251021185 0.0
0.5447859278293945 0.34262223816401394 0.0
0.4594948214297615 0.8920313032464312 0.0
[...]
POINT_DATA 7905
VECTORS vector double
0.0 0.0 0.0
0.0 0.0 0.0
0.0 0.0 0.0
0.0 0.0 0.0
0.0 0.0 0.0
0.0 0.0 0.0
0.0 0.0 0.0
0.0 0.0 0.0
0.0 0.0 0.0
0.0 0.0 0.0
0.0 0.0 0.0
0.0 0.0 0.0
0.0 0.0 0.0
0.0 0.0 0.0
0.0 0.0 0.0
0.0 0.0 0.0
0.0 0.0 0.0
0.0 0.0 0.0
0.0 0.0 0.0
0.0 0.0 0.0
0.0 0.0 0.0
0.0 0.0 0.0
0.0 0.0 0.0
0.0 0.0 0.0
0.0 0.0 0.0
0.0 0.0 0.0
0.0 0.0 0.0
0.0 0.0 0.0
0.0 0.0 0.0
0.0 0.0 0.0
0.0 0.0 0.0
0.0 0.0 0.0
0.0 0.0 0.0
0.0 0.0 0.0
0.0 0.0 0.0
0.0 0.0 0.0
0.0 0.0 0.0
0.0 0.0 0.0
0.0 0.0 0.0
0.0 0.0 0.0
0.0 0.0 0.0
0.0 0.0 0.0
0.0 0.0 0.0
0.0 0.0 0.0
0.0 0.0 0.0
0.0 0.0 0.0
0.0 0.0 0.0
0.0 0.0 0.0
0.0 0.0 0.0
0.0 0.0 0.0
0.0 0.0 0.0
0.0 0.0 0.0
0.0 0.0 0.0
0.0 0.0 0.0
0.0 0.0 0.0
0.0 0.0 0.0
0.0 0.0 0.0
0.0 0.0 0.0
0.0 0.0 0.0
0.0 0.0 0.0
0.0 0.0 0.0
0.0 0.0 0.0
0.0 0.0 0.0
0.0 0.0 0.0
0.0 0.0 0.0
0.0 0.0 0.0
0.0 0.0 0.0
0.0 0.0 0.0
0.0 0.0 0.0
0.0 0.0 0.0
0.0 0.0 0.0
0.0 0.0 0.0
0.0 0.0 0.0
0.0 0.0 0.0
0.0 0.0 0.0
0.0 0.0 0.0
0.0 0.0 0.0
0.0 0.0 0.0
0.0 0.0 0.0
0.0 0.0 0.0
0.0 0.0 0.0
0.0 0.0 0.0
0.0 0.0 0.0
0.0 0.0 0.0
0.0 0.0 0.0
0.0 0.0 0.0
0.0 0.0 0.0
0.0 0.0 0.0
0.0 0.0 0.0
0.0 0.0 0.0
0.0 0.0 0.0
0.0 0.0 0.0
0.0 0.0 0.0
0.0 0.0 0.0
0.0 0.0 0.0
0.0 0.0 0.0
0.0 0.0 0.0
0.0 0.0 0.0
0.0 0.0 0.0
0.0 0.0 0.0
0.0 0.0 0.0
0.0 0.0 0.0
0.0 0.0 0.0
0.0 0.0 0.0
0.0 0.0 0.0
0.0 0.0 0.0
0.0 0.0 0.0
0.0 0.0 0.0
0.0 0.0 0.0
0.0 0.0 0.0
0.0 0.0 0.0
0.0 0.0 0.0
0.0 0.0 0.0
0.0 0.0 0.0
0.0 0.0 0.0
0.0 0.0 0.0
0.0 0.0 0.0
0.0 0.0 0.0
0.0 0.0 0.0
0.0 0.0 0.0
0.0 0.0 0.0
0.0 0.0 0.0
0.0 0.0 0.0
0.0 0.0 0.0
0.0 0.0 0.0
0.0 0.0 0.0
0.0 0.0 0.0
0.0 0.0 0.0
0.0 0.0 0.0
0.0 0.0 0.0
0.0 0.0 0.0
0.0 0.0 0.0
0.0 0.0 0.0
0.0 0.0 0.0
0.0 0.0 0.0
0.0 0.0 0.0
0.0 0.0 0.0
0.0 0.0 0.0
0.0 0.0 0.0
0.0 0.0 0.0
0.0 0.0 0.0
0.0 0.0 0.0
0.0 0.0 0.0
0.0 0.0 0.0
0.0 0.0 0.0
0.0 0.0 0.0
0.0 0.0 0.0
0.0 0.0 0.0
0.0 0.0 0.0
0.0 0.0 0.0
0.0 0.0 0.0
0.0 0.0 0.0
0.0 0.0 0.0
0.0 0.0 0.0
0.0 0.0 0.0
0.0 0.0 0.0
0.0 0.0 0.0
0.0 0.0 0.0
0.0 0.0 0.0
0.0 0.0 0.0
0.0 0.0 0.0
0.0 0.0 0.0
1.0 0.0 0.0
1.0 0.0 0.0
1.0 0.0 0.0
1.0 0.0 0.0
1.0 0.0 0.0
1.0 0.0 0.0
1.0 0.0 0.0
1.0 0.0 0.0
1.0 0.0 0.0
1.0 0.0 0.0
1.0 0.0 0.0
1.0 0.0 0.0
1.0 0.0 0.0
1.0 0.0 0.0
1.0 0.0 0.0
1.0 0.0 0.0
1.0 0.0 0.0
1.0 0.0 0.0
1.0 0.0 0.0
1.0 0.0 0.0
1.0 0.0 0.0
1.0 0.0 0.0
1.0 0.0 0.0
1.0 0.0 0.0
1.0 0.0 0.0
1.0 0.0 0.0
1.0 0.0 0.0
1.0 0.0 0.0
1.0 0.0 0.0
1.0 0.0 0.0
1.0 0.0 0.0
1.0 0.0 0.0
1.0 0.0 0.0
1.0 0.0 0.0
1.0 0.0 0.0
1.0 0.0 0.0
1.0 0.0 0.0
1.0 0.0 0.0
1.0 0.0 0.0
1.0 0.0 0.0
1.0 0.0 0.0
1.0 0.0 0.0
1.0 0.0 0.0
1.0 0.0 0.0
1.0 0.0 0.0
1.0 0.0 0.0
1.0 0.0 0.0
1.0 0.0 0.0
1.0 0.0 0.0
1.0 0.0 0.0
1.0 0.0 0.0
1.0 0.0 0.0
1.0 0.0 0.0
1.0 0.0 0.0
1.0 0.0 0.0
1.0 0.0 0.0
1.0 0.0 0.0
1.0 0.0 0.0
1.0 0.0 0.0
1.0 0.0 0.0
1.0 0.0 0.0
1.0 0.0 0.0
1.0 0.0 0.0
1.0 0.0 0.0
1.0 0.0 0.0
1.0 0.0 0.0
1.0 0.0 0.0
1.0 0.0 0.0
1.0 0.0 0.0
1.0 0.0 0.0
1.0 0.0 0.0
1.0 0.0 0.0
1.0 0.0 0.0
1.0 0.0 0.0
1.0 0.0 0.0
1.0 0.0 0.0
1.0 0.0 0.0
1.0 0.0 0.0
1.0 0.0 0.0
0.0 0.0 0.0
0.0 0.0 0.0
0.0 0.0 0.0
0.0 0.0 0.0
0.0 0.0 0.0
0.0 0.0 0.0
0.0 0.0 0.0
0.0 0.0 0.0
0.0 0.0 0.0
0.0 0.0 0.0
0.0 0.0 0.0
0.0 0.0 0.0
0.0 0.0 0.0
0.0 0.0 0.0
0.0 0.0 0.0
0.0 0.0 0.0
0.0 0.0 0.0
0.0 0.0 0.0
0.0 0.0 0.0
0.0 0.0 0.0
0.0 0.0 0.0
0.0 0.0 0.0
0.0 0.0 0.0
0.0 0.0 0.0
0.0 0.0 0.0
0.0 0.0 0.0
0.0 0.0 0.0
0.0 0.0 0.0
0.0 0.0 0.0
0.0 0.0 0.0
0.0 0.0 0.0
0.0 0.0 0.0
0.0 0.0 0.0
0.0 0.0 0.0
0.0 0.0 0.0
0.0 0.0 0.0
0.0 0.0 0.0
0.0 0.0 0.0
0.0 0.0 0.0
0.0 0.0 0.0
0.0 0.0 0.0
0.0 0.0 0.0
0.0 0.0 0.0
0.0 0.0 0.0
0.0 0.0 0.0
0.0 0.0 0.0
0.0 0.0 0.0
0.0 0.0 0.0
0.0 0.0 0.0
0.0 0.0 0.0
0.0 0.0 0.0
0.0 0.0 0.0
0.0 0.0 0.0
0.0 0.0 0.0
0.0 0.0 0.0
0.0 0.0 0.0
0.0 0.0 0.0
0.0 0.0 0.0
0.0 0.0 0.0
0.0 0.0 0.0
0.0 0.0 0.0
0.0 0.0 0.0
0.0 0.0 0.0
0.0 0.0 0.0
0.0 0.0 0.0
0.0 0.0 0.0
0.0 0.0 0.0
0.0 0.0 0.0
0.0 0.0 0.0
0.0 0.0 0.0
0.0 0.0 0.0
0.0 0.0 0.0
0.0 0.0 0.0
0.0 0.0 0.0
0.0 0.0 0.0
0.0 0.0 0.0
0.0 0.0 0.0
0.0 0.0 0.0
0.0 0.0 0.0
-0.206732024344 0.0578981555015 0.0
-0.123156415978 -0.149801522324 0.0
-0.0693389119303 0.221329185338 0.0
-0.106023091562 -0.0705470745811 0.0
-0.0849474080189 0.0613102762227 0.0
0.0635555844207 0.114414262907 0.0
-0.0720520908485 0.155263758803 0.0
-0.182197798767 -0.233732985648 0.0
-0.102412959305 -0.000505064849369 0.0
0.0350978063174 -0.31460424623 0.0
-0.0638096199585 0.238691041641 0.0
-0.0213795929466 -0.0224993960125 0.0
-0.0257137065815 0.0236884965525 0.0
0.269712121285 -0.00372466005895 0.0
-0.0418480346004 0.201856021281 0.0
0.100841665053 0.136538711554 0.0
-0.171151110763 -0.388466609471 0.0
-0.0529668278121 -0.0933733373646 0.0
-0.0380026458959 0.0825908942905 0.0
-0.0625737080555 0.0153009498837 0.0
-0.0635354469166 -0.0184257069962 0.0
-0.158166604457 0.0435761469565 0.0
-0.132933062437 0.170992937286 0.0
-0.22154325784 -0.0912823727838 0.0
-0.151389903376 0.0463465691442 0.0
-0.109602560016 0.166306590518 0.0
-0.245947299711 -0.122262035789 0.0
-0.138907098157 0.105727269452 0.0
-0.168375229474 -0.0122019893649 0.0
0.375108938923 0.0638026827562 0.0
-0.0232632959867 0.104950297877 0.0
-0.0772065225438 -0.227534049823 0.0
-0.0721908727935 -0.00323314864546 0.0
0.444177023246 -0.0599928729754 0.0
-0.0309296492049 0.202553961489 0.0
-0.0126160865862 -0.0286028088689 0.0
-0.0316971464958 0.00950835167649 0.0
-0.111357256307 -0.484407735661 0.0
0.15569994395 0.114790142014 0.0
-0.0293493045871 -0.0112081171955 0.0
-0.01454491649 0.036241278176 0.0
0.0424930403075 0.0227885097598 0.0
-0.0701908294139 0.206961481927 0.0
-0.140590463029 -0.133294355219 0.0
-0.109711843874 0.0317001536043 0.0
-0.0170340360548 0.180232428737 0.0
-0.22562982374 -0.252785581153 0.0
-0.0854636820522 0.106725964591 0.0
-0.1169331932 -0.03188142229 0.0
0.0726284033485 -0.370719862057 0.0
-0.0811200387408 0.255765192761 0.0
-0.00241226231669 -0.00357735931971 0.0
-0.0048439751568 0.00544552075554 0.0
0.529933843187 0.0182379500011 0.0
-0.0152511737897 0.123297407621 0.0
-0.0280477651719 -0.0919336577508 0.0
-0.0475867719064 0.00342548334257 0.0
-0.142823450617 -0.333335076266 0.0
-0.0305878346219 0.207544510023 0.0
-0.0619569786865 -0.0389091452236 0.0
-0.0504453803441 0.0582773120677 0.0
0.0693640337722 -0.125078620237 0.0
-0.0598400810071 0.237952273704 0.0
-0.0561365068055 -0.063932555203 0.0
-0.0590764944671 0.0330928923681 0.0
-0.170606128573 0.108059909325 0.0
-0.228922961409 -0.00953686307489 0.0
-0.167415127474 0.117776733456 0.0
-0.211825333934 -0.0137337605815 0.0
-0.190905618766 -0.0735686355838 0.0
-0.0962760809249 0.200308456894 0.0
-0.165274299546 -0.067228887254 0.0
-0.117988173337 0.0742776774733 0.0
0.625203519567 -0.00619090363491 0.0
-0.0120826359894 0.129255550872 0.0
-0.0105274479666 -0.0386918508173 0.0
-0.0336417060777 0.00411177957008 0.0
-0.0634574598304 -0.293967724284 0.0
-0.0349835613364 -0.00545570821277 0.0
0.41674595954 0.0512466664611 0.0
-0.0104009476122 0.050679189735 0.0
0.41087372682 -0.112151054804 0.0
-0.0496821524914 0.228501791627 0.0
-0.00351978513771 -0.00849332842304 0.0
-0.0128213643284 0.00592904379183 0.0
-0.0788766040121 -0.535677232024 0.0
-0.00897898679137 -0.00558641219472 0.0
0.105513168451 0.133666415499 0.0
-0.00602616555768 0.0136975644336 0.0
-0.0750635149908 0.119938747526 0.0
-0.116171980511 0.155634565283 0.0
-0.226385800143 -0.17389953642 0.0
-0.134594806648 0.00595031720146 0.0
0.203974926305 0.0592113162526 0.0
-0.0486200152385 0.173137662548 0.0
-0.0999177924083 -0.17029083299 0.0
-0.0783227494074 0.00809356169698 0.0
0.0757749523363 0.133080209166 0.0
-0.0523217048326 0.118022513349 0.0
-0.181335300593 -0.308795246354 0.0
-0.0797996246794 -0.0135203656546 0.0
-0.185037679174 0.0557997761199 0.0
-0.183364326663 0.0180717972834 0.0
-0.190454504672 -0.0151346666097 0.0
-0.200833243365 0.0214418753421 0.0
-0.000447645320198 -0.0011390330389 0.0
-0.000634548473113 -0.00036698056377 0.0
-0.003534010158 0.00166147723026 0.0
-0.00104558575928 0.000773348232763 0.0
0.372733657002 -0.147687862889 0.0
0.0641809108126 -0.374631996274 0.0
-0.0681829854609 0.265130244588 0.0
-0.061843466536 0.280145096618 0.0
-0.00225591035486 -0.00115154138477 0.0
-0.00127514175076 0.00267400384296 0.0
-0.0531221917536 -0.520909146933 0.0
0.114673818217 0.149359435885 0.0
-0.164415793337 0.0188842385544 0.0
-0.169264967404 0.0513692948196 0.0
-0.0955719237467 0.148067910663 0.0
-0.0439879505405 0.153183925323 0.0
-0.0738950040569 0.175255705597 0.0
-0.243085264423 -0.154474456768 0.0
-0.237146921784 -0.208251229348 0.0
-0.242128943583 -0.172846538903 0.0
-0.127589622575 0.130774086658 0.0
-0.103574130663 0.134930254914 0.0
-0.11434188463 0.112493698374 0.0
-0.149951468155 -0.00289119397008 0.0
-0.130670873467 -0.0125603803573 0.0
-0.144834031693 -0.0275229169428 0.0
-0.152410199929 0.145457072526 0.0
-0.176130146548 0.117011414492 0.0
-0.153619705333 0.145561731194 0.0
-0.136200611471 0.144172349593 0.0
-0.127925737038 0.16966793574 0.0
-0.237688552845 -0.0566990765216 0.0
-0.228525778155 -0.0127446327975 0.0
-0.218631395564 -0.0508286105368 0.0
-0.242129129959 -0.104629094506 0.0
-0.24174722729 -0.0708347667727 0.0
-0.0103055813042 0.120597829847 0.0
0.0114884470276 0.146504209924 0.0
-0.0936172611862 0.159594858252 0.0
-0.0820659029479 0.135236264368 0.0
-0.21019448468 -0.205948790904 0.0
-0.21933618729 -0.253574818819 0.0
-0.120147750178 0.00245514732261 0.0
-0.111448494442 -0.0123574489226 0.0
-0.0601907006265 0.2122308054 0.0
-0.0665832667335 0.226993890047 0.0
-0.0526305658275 0.225675696441 0.0
0.125000293334 0.00568902981381 0.0
0.0413818133643 -0.0511808935797 0.0
0.172612636754 -0.0487307969644 0.0
-0.0808092560217 0.0230309785893 0.0
-0.0801318402914 0.0349622719016 0.0
-0.0628750058754 0.0236801872453 0.0
-0.0916439820476 -0.11907709813 0.0
-0.0908274040642 -0.0957343741811 0.0
-0.056320159281 -0.0797305643483 0.0
-0.0652196499114 0.231155311295 0.0
-0.0780379338648 0.221452066877 0.0
-0.0424119004005 -0.13783292794 0.0
-0.0662401198778 -0.0664418480993 0.0
-0.0736618774088 0.0471244924373 0.0
-0.0948932701734 0.0490677094499 0.0
-0.0839700840972 -0.0723990436642 0.0
-0.120768046886 -0.0937020475553 0.0
-0.182355189597 -0.391678491841 0.0
-0.195140095361 -0.301508667158 0.0
-0.207267223794 -0.340588124474 0.0
0.0220194058953 0.173605170946 0.0
-0.0229307688572 0.196186036521 0.0
0.0253357859019 0.167601140326 0.0
-0.0641242695943 -0.0280776408538 0.0
-0.087466014083 -0.0401884478838 0.0
-0.0843680165218 -0.0267998305433 0.0
-0.0450018177908 0.0714491131508 0.0
-0.0663879443631 0.0798771044496 0.0
-0.058809467662 0.0944661885144 0.0
-0.163350960387 0.0857334247238 0.0
-0.149202240639 0.0766072836894 0.0
0.6500589203 0.0196916966264 0.0
0.676804555242 0.0160696340435 0.0
-0.00566828002394 0.0523492214931 0.0
-0.0061042167372 0.0652467300554 0.0
-0.0225505160614 -0.140401894097 0.0
-0.0179394137985 -0.103179346371 0.0
-0.0366435592865 -0.00149636105424 0.0
-0.0393182345703 -0.000210668637389 0.0
-0.0210243661451 -0.162345318136 0.0
-0.0713809865421 -0.266835485755 0.0
-0.0290622236502 -0.00186673571479 0.0
-0.0459657005792 -0.00543368077954 0.0
0.667823412463 0.0176321091592 0.0
0.386515533575 0.0573527102155 0.0
-0.00384301377417 0.0357196813944 0.0
-0.0153155178608 0.0712515634126 0.0
-0.224377306239 -0.134095054244 0.0
-0.144866142752 0.0221978434362 0.0
-0.188724954988 -0.207459189724 0.0
-0.13338074166 -0.231798269326 0.0
-0.0557842494704 0.207230286929 0.0
-0.0524849168814 0.219427064752 0.0
-0.111587143013 -0.0537577579776 0.0
-0.0841402130252 -0.0549137722108 0.0
-0.0864067618861 0.0795653887725 0.0
-0.069284181201 0.0621309710334 0.0
-0.101181379673 0.185498903768 0.0
-0.113295839279 0.189973643856 0.0
-0.127771726057 0.0899900642039 0.0
-0.134336791647 0.0639650830631 0.0
-0.177820800933 0.0892183089925 0.0
-0.153213988995 0.114725672335 0.0
-0.198243480109 0.0792817725881 0.0
-0.190003147617 0.0890862381449 0.0
-0.215132860159 0.0240435882234 0.0
-0.219200122872 0.0323741443178 0.0
-0.131123434424 -0.327031419022 0.0
-0.117826099152 -0.370678077371 0.0
-0.0621281822837 -0.0102879535173 0.0
-0.0481111271466 -0.0108437903092 0.0
0.20531047947 0.0999655370085 0.0
0.229672865416 0.0935946052004 0.0
-0.0310641381904 0.0933607206971 0.0
-0.0218502725929 0.0685563909113 0.0
0.732940619108 -0.0152561535568 0.0
0.688818116061 -0.026679703704 0.0
-0.00820286933874 0.113441416092 0.0
-0.0127278008699 0.135551966859 0.0
-0.00264938908718 -0.0129129974136 0.0
-0.00203377636158 -0.00845007880388 0.0
-0.0206394410279 0.00233084181275 0.0
-0.0161474115294 0.00260087630678 0.0
-0.0436924067132 -0.372527136377 0.0
-0.0371952717223 -0.299178935739 0.0
-0.0142836866419 -0.00301883595936 0.0
-0.0201697153801 -0.00300695441188 0.0
0.453856519137 0.0434646113178 0.0
0.530044069685 0.0324478700178 0.0
-0.0032568872156 0.0153596796033 0.0
-0.00370402682671 0.0218437877304 0.0
0.456753117857 0.036189405281 0.0
0.737354674455 0.00812593116587 0.0
-0.0185484643291 0.115659204943 0.0
-0.00474393946971 0.0693609427681 0.0
-0.0456134051864 -0.142278206741 0.0
-0.0105648638278 -0.0636679396816 0.0
-0.0539475104572 0.00131732573676 0.0
-0.0351987306454 0.000932817696426 0.0
-0.148534099703 -0.44169949498 0.0
-0.144750389726 -0.438616935043 0.0
0.111312517635 0.131762883261 0.0
0.0124117398925 0.178032876155 0.0
-0.0459416371297 -0.0168290346907 0.0
-0.043207259308 -0.0241739606917 0.0
-0.0262961049141 0.0592167862932 0.0
-0.031705612918 0.0498911012409 0.0
0.132157048745 0.0846124426627 0.0
0.260570305514 0.0676766040017 0.0
0.163031863299 0.0982213530154 0.0
-0.0596211822746 0.167374536003 0.0
-0.0378423545307 0.14519181172 0.0
-0.049065458266 0.139810824313 0.0
-0.138341897011 -0.204282867492 0.0
-0.0949316008579 -0.196526335274 0.0
-0.140645959446 -0.248395795401 0.0
-0.0904910544451 0.00554338592557 0.0
-0.0722297674792 0.00181915285099 0.0
-0.0825336766726 -0.00279871492306 0.0
-0.170753807358 -0.00533360393938 0.0
-0.117704219014 -0.0268225087892 0.0
-0.104475016271 0.036472692242 0.0
-0.0952935064245 0.207031446933 0.0
-0.109500515102 0.190896957066 0.0
-0.193431120428 -0.0810154707021 0.0
-0.160167210143 -0.0982420764593 0.0
-0.192115682806 -0.119281901472 0.0
-0.115810513866 0.0538026046884 0.0
-0.130548699336 0.040025556425 0.0
0.225774383986 -0.153806564628 0.0
0.218042940626 -0.100846962668 0.0
0.0672107132887 -0.207599179903 0.0
-0.0572207359652 0.243135977785 0.0
-0.0506653626057 0.234729857952 0.0
-0.0610225217563 0.242659020676 0.0
-0.0180048177186 -0.0284710284317 0.0
-0.0315328279272 -0.048578736185 0.0
-0.0350252663194 -0.0403156392878 0.0
-0.0305788969845 0.0170692104489 0.0
-0.0450258127899 0.0206064643449 0.0
-0.0413949209609 0.0294050347933 0.0
-0.156458329259 -0.111663086221 0.0
-0.0803474032733 0.212119697617 0.0
-0.134694673421 -0.073553362744 0.0
-0.102364618549 0.0685045719793 0.0
-0.199406662495 0.0208217663754 0.0
-0.218390711915 -0.0388937953134 0.0
-0.231620460105 -0.105787601997 0.0
-0.19360419018 -0.0469447935323 0.0
-0.167400889912 -0.0398697395126 0.0
0.77978293046 0.00253167003756 0.0
-0.00366957690186 0.0711070037516 0.0
-0.00631216249511 -0.0381767721332 0.0
-0.0299410634612 0.00134980387469 0.0
0.0805479241994 0.128305617228 0.0
0.0361067560936 0.15345679584 0.0
-0.186358682338 -0.278630053005 0.0
-0.211767775456 -0.302521090541 0.0
-0.0619451990665 0.132656101713 0.0
-0.0667362765883 0.115951897819 0.0
-0.0932797487411 -0.00936381476322 0.0
-0.0958639133369 -0.0193196026885 0.0
0.426124545758 -0.0913770678142 0.0
0.658841631531 -0.036422416077 0.0
-0.0405695166961 0.21697287651 0.0
-0.0181260897827 0.152303527376 0.0
-0.00667015667164 -0.0155191402906 0.0
-0.00111346416205 -0.00430484253094 0.0
-0.0202648869 0.00794664417718 0.0
-0.0106948048706 0.00214403606164 0.0
-0.0427456212017 -0.413488787182 0.0
-0.0947875468077 -0.521959158952 0.0
-0.00857308207342 -0.0021728042895 0.0
-0.0160638311572 -0.00841072377847 0.0
0.417983302895 0.0505140679785 0.0
0.119628517182 0.126481215229 0.0
-0.00214768235021 0.00898756973095 0.0
-0.00958363291549 0.022244960771 0.0
-0.036489905208 0.207644521434 0.0
0.340398468327 -0.0388242230137 0.0
-0.0473688810807 0.013924234088 0.0
-0.0292052152712 -0.0574421706202 0.0
-0.0702094201318 -0.341363683836 0.0
-0.100541303739 -0.463392217663 0.0
-0.0462133009098 0.221009656878 0.0
-0.00810954429964 0.188047257112 0.0
-0.0394337760669 -0.0323836217466 0.0
-0.0262800195467 -0.0183839415473 0.0
-0.0370720955832 0.0396647899825 0.0
-0.0216812881138 0.0326183301804 0.0
-0.000693067451785 -0.00218713663993 0.0
0.569383453266 -0.062484062163 0.0
-0.00668658395833 0.00188952088062 0.0
-0.0331512925331 0.194165475485 0.0
-0.0498802738245 -0.477139639931 0.0
-0.00481369348519 -0.00161223247008 0.0
0.310238037645 0.0768300448387 0.0
-0.00160865376721 0.00513602318513 0.0
0.335250067416 0.0407496499589 0.0
-0.0318071145154 0.155880116591 0.0
-0.0632166590262 -0.141195945348 0.0
-0.0644738283302 0.00567016031673 0.0
-0.00336752735887 -0.00640345055419 0.0
-0.00944687207467 0.00651918530519 0.0
0.259604387519 -0.202601530108 0.0
-0.0756006334217 0.258863584754 0.0
-0.0465295054533 -0.505978587341 0.0
-0.00584400361703 -0.00533594100726 0.0
-0.00837277367477 0.190935758648 0.0
-0.00613293562865 0.0100240266482 0.0
-0.048133045686 -0.230636132895 0.0
-0.0566828856849 0.232046807495 0.0
-0.0580504386024 -0.0504750302223 0.0
-0.0546084384041 0.0446704335878 0.0
-0.0466169213397 0.081045209872 0.0
-0.117159169718 0.0819261673463 0.0
-0.101917123262 0.180950164121 0.0
-0.126517574505 0.167342161697 0.0
-0.196729869526 -0.160409032024 0.0
-0.124898437678 0.0203412069071 0.0
0.158210031004 0.109637728743 0.0
-0.0434038772512 0.117214782025 0.0
0.0947303759268 0.135640837407 0.0
-0.0482094084443 0.103879396351 0.0
-0.150291256507 -0.29587420435 0.0
-0.07595681928 -0.00886269831028 0.0
-0.181975380919 -0.340211893868 0.0
-0.0773737147371 -0.0164251993259 0.0
0.789786277377 -0.00587788051167 0.0
0.548647324257 -0.0217882123732 0.0
-0.00477778954356 0.085689603763 0.0
-0.018742976748 0.161945568608 0.0
0.301325435814 0.074015918292 0.0
0.44361596911 -0.00696205263774 0.0
-0.0249004582855 0.173178081858 0.0
-0.0881994818194 -0.387085630873 0.0
-0.0122836743411 0.0447753450319 0.0
-0.0329934604525 -0.00802898102283 0.0
0.633785568187 0.0205298456241 0.0
-0.0248891535607 -0.209652926837 0.0
-0.00328416214671 0.0265734618839 0.0
-0.0239034879433 -0.0022083802389 0.0
-0.00254285431762 -0.0157232790344 0.0
-0.0116940979298 -0.0352446825819 0.0
-0.0222899063735 0.00156370444401 0.0
-0.033944197767 0.00635358489616 0.0
-0.0260890086208 -0.0645976562876 0.0
-0.0469833306135 0.00868804380125 0.0
0.0369019320034 0.0841549449313 0.0
-0.0806391685502 0.180986429106 0.0
-0.168901767708 -0.184578088703 0.0
-0.107528530274 0.0131297979371 0.0
-0.132237136961 0.11552522535 0.0
-0.169223123397 0.0742316825288 0.0
-0.141608559797 0.141127886137 0.0
0.220346409257 -0.199285198388 0.0
-0.0679907684264 0.250560667386 0.0
-0.0601212503604 -0.474103129457 0.0
-0.00956281480406 -0.0156042946126 0.0
-0.0252346610617 0.197915312674 0.0
-0.0189597584627 0.0125696911151 0.0
-0.0140727955358 -0.0119119471715 0.0
-0.0136196372927 0.0199929729658 0.0
0.227791970568 0.0321976930249 0.0
0.110405433334 0.0533952331097 0.0
-0.0465430302887 0.188920203375 0.0
-0.0648925088231 0.192776358999 0.0
-0.123140652675 -0.160384178645 0.0
-0.07875529721 -0.132806979829 0.0
-0.0735760888483 0.0128149807336 0.0
-0.0912977292122 0.0160080053682 0.0
-0.0736515540186 0.196575083812 0.0
-0.216359240609 -0.159082738339 0.0
-0.106228970415 0.0906570279316 0.0
-0.139315765788 -0.0497742516813 0.0
0.0624240879222 -0.34856942405 0.0
-0.0755997737753 0.24410288538 0.0
-0.00854130194534 -0.0106660174542 0.0
-0.0128732484378 0.0131920412072 0.0
-0.203522637423 0.0533347859965 0.0
0.581684189391 0.00427068087454 0.0
0.805458232559 -0.00141750028239 0.0
-0.0132756270587 0.128480865017 0.0
-0.00340348016859 0.0724626719733 0.0
0.384917075291 0.0165308960662 0.0
-0.0284653525243 0.167459772835 0.0
-0.0175200886681 -0.0596255500507 0.0
-0.00364324695459 -0.0223902605178 0.0
-0.0409043090347 0.00421354993354 0.0