# vtk DataFile Version 2.0
2D Simulation Python
ASCII
DATASET UNSTRUCTURED_GRID
FIELD FieldData 1
NODES 1 2 int
7905 15488

POINTS 7905 double
0.0 0.0 0.0
1.0 0.0 0.0
1.0 1.0 0.0
0.0 1.0 0.0
0.01249999999997639 0.0 0.0
0.02499999999995297 0.0 0.0
0.03749999999992721 0.0 0.0
0.04999999999989927 0.0 0.0
0.0624999999998716 0.0 0.0
0.07499999999985263 0.0 0.0
0.08749999999983366 0.0 0.0
0.09999999999981467 0.0 0.0
0.1124999999997956 0.0 0.0
0.1249999999997765 0.0 0.0
0.1374999999997401 0.0 0.0
0.1499999999997036 0.0 0.0
0.1624999999996672 0.0 0.0
0.1749999999996308 0.0 0.0
0.1874999999995943 0.0 0.0
0.1999999999995579 0.0 0.0
0.2124999999995214 0.0 0.0
0.224999999999485 0.0 0.0
0.2374999999994485 0.0 0.0
0.2499999999994121 0.0 0.0
0.2624999999993757 0.0 0.0
0.2749999999993393 0.0 0.0
0.2874999999993028 0.0 0.0
0.2999999999992664 0.0 0.0
0.3124999999992299 0.0 0.0
0.3249999999991935 0.0 0.0
0.3374999999991571 0.0 0.0
0.3499999999991207 0.0 0.0
0.3624999999990842 0.0 0.0
0.3749999999990478 0.0 0.0
0.3874999999990113 0.0 0.0
0.3999999999989749 0.0 0.0
0.4124999999989398 0.0 0.0
0.4249999999989048 0.0 0.0
0.4374999999988697 0.0 0.0
0.4499999999988346 0.0 0.0
0.4624999999987995 0.0 0.0
0.4749999999987644 0.0 0.0
0.4874999999987293 0.0 0.0
0.4999999999986943 0.0 0.0
0.5124999999987259 0.0 0.0
0.5249999999987575 0.0 0.0
0.5374999999987891 0.0 0.0
0.5499999999988205 0.0 0.0
0.5624999999988521 0.0 0.0
0.5749999999988837 0.0 0.0
0.5874999999989152 0.0 0.0
0.5999999999989468 0.0 0.0
0.6124999999989797 0.0 0.0
0.6249999999990127 0.0 0.0
0.6374999999990456 0.0 0.0
0.6499999999990784 0.0 0.0
0.6624999999991114 0.0 0.0
0.6749999999991443 0.0 0.0
0.6874999999991771 0.0 0.0
0.69999999999921 0.0 0.0
0.712499999999243 0.0 0.0
0.7249999999992759 0.0 0.0
0.7374999999993088 0.0 0.0
0.7499999999993416 0.0 0.0
0.7624999999993746 0.0 0.0
0.7749999999994075 0.0 0.0
0.7874999999994404 0.0 0.0
0.7999999999994734 0.0 0.0
0.8124999999995063 0.0 0.0
0.8249999999995392 0.0 0.0
0.8374999999995721 0.0 0.0
0.8499999999996051 0.0 0.0
0.862499999999638 0.0 0.0
0.8749999999996709 0.0 0.0
0.8874999999997039 0.0 0.0
0.8999999999997368 0.0 0.0
0.9124999999997697 0.0 0.0
0.9249999999998026 0.0 0.0
0.9374999999998355 0.0 0.0
0.9499999999998684 0.0 0.0
0.9624999999999013 0.0 0.0
0.9749999999999343 0.0 0.0
0.9874999999999672 0.0 0.0
1.0 0.01249999999997639 0.0
1.0 0.02499999999995297 0.0
1.0 0.03749999999992721 0.0
1.0 0.04999999999989927 0.0
1.0 0.0624999999998716 0.0
1.0 0.07499999999985263 0.0
1.0 0.08749999999983366 0.0
1.0 0.09999999999981467 0.0
1.0 0.1124999999997956 0.0
1.0 0.1249999999997765 0.0
1.0 0.1374999999997401 0.0
1.0 0.1499999999997036 0.0
1.0 0.1624999999996672 0.0
1.0 0.1749999999996308 0.0
1.0 0.1874999999995943 0.0
1.0 0.1999999999995579 0.0
1.0 0.2124999999995214 0.0
1.0 0.224999999999485 0.0
1.0 0.2374999999994485 0.0
1.0 0.2499999999994121 0.0
1.0 0.2624999999993757 0.0
1.0 0.2749999999993393 0.0
1.0 0.2874999999993028 0.0
1.0 0.2999999999992664 0.0
1.0 0.3124999999992299 0.0
1.0 0.3249999999991935 0.0
1.0 0.3374999999991571 0.0
1.0 0.3499999999991207 0.0
1.0 0.3624999999990842 0.0
1.0 0.3749999999990478 0.0
1.0 0.3874999999990113 0.0
1.0 0.3999999999989749 0.0
1.0 0.4124999999989398 0.0
1.0 0.4249999999989048 0.0
1.0 0.4374999999988697 0.0
1.0 0.4499999999988346 0.0
1.0 0.4624999999987995 0.0
1.0 0.4749999999987644 0.0
1.0 0.4874999999987293 0.0
1.0 0.4999999999986943 0.0
1.0 0.5124999999987259 0.0
1.0 0.5249999999987575 0.0
1.0 0.5374999999987891 0.0
1.0 0.5499999999988205 0.0
1.0 0.5624999999988521 0.0
1.0 0.5749999999988837 0.0
1.0 0.5874999999989152 0.0
1.0 0.5999999999989468 0.0
1.0 0.6124999999989797 0.0
1.0 0.6249999999990127 0.0
1.0 0.6374999999990456 0.0
1.0 0.6499999999990784 0.0
1.0 0.6624999999991114 0.0
1.0 0.6749999999991443 0.0
1.0 0.6874999999991771 0.0
1.0 0.69999999999921 0.0
1.0 0.712499999999243 0.0
1.0 0.7249999999992759 0.0
1.0 0.7374999999993088 0.0
1.0 0.7499999999993416 0.0
1.0 0.7624999999993746 0.0
1.0 0.7749999999994075 0.0
1.0 0.7874999999994404 0.0
1.0 0.7999999999994734 0.0
1.0 0.8124999999995063 0.0
1.0 0.8249999999995392 0.0
1.0 0.8374999999995721 0.0
1.0 0.8499999999996051 0.0
1.0 0.862499999999638 0.0
1.0 0.8749999999996709 0.0
1.0 0.8874999999997039 0.0
1.0 0.8999999999997368 0.0
1.0 0.9124999999997697 0.0
1.0 0.9249999999998026 0.0
1.0 0.9374999999998355 0.0
1.0 0.9499999999998684 0.0
1.0 0.9624999999999013 0.0
1.0 0.9749999999999343 0.0
1.0 0.9874999999999672 0.0
0.9874999999999439 1.0 0.0
0.9749999999998877 1.0 0.0
0.9624999999998541 1.0 0.0
0.9499999999998356 1.0 0.0
0.9374999999997805 1.0 0.0
0.9249999999996992 1.0 0.0
0.9124999999996414 1.0 0.0
0.8999999999995836 1.0 0.0
0.8874999999996454 1.0 0.0
0.8749999999997078 1.0 0.0
0.8624999999997771 1.0 0.0
0.8499999999998515 1.0 0.0
0.837499999999895 1.0 0.0
0.8249999999999216 1.0 0.0
0.8124999999999571 1.0 0.0
0.7999999999999998 1.0 0.0
0.7875000000000937 1.0 0.0
0.77500000000021 1.0 0.0
0.7625000000002968 1.0 0.0
0.7500000000003858 1.0 0.0
0.7375000000004739 1.0 0.0
0.7250000000005448 1.0 0.0
0.7125000000005861 1.0 0.0
0.7000000000006934 1.0 0.0
0.6875000000008109 1.0 0.0
0.6750000000009306 1.0 0.0
0.6625000000010091 1.0 0.0
0.6500000000010593 1.0 0.0
0.6375000000011386 1.0 0.0
0.6250000000012101 1.0 0.0
0.612500000001312 1.0 0.0
0.6000000000013869 1.0 0.0
0.5875000000014601 1.0 0.0
0.5750000000015277 1.0 0.0
0.5625000000016089 1.0 0.0
0.5500000000016854 1.0 0.0
0.5375000000017889 1.0 0.0
0.5250000000018821 1.0 0.0
0.5125000000019756 1.0 0.0
0.5000000000020587 1.0 0.0
0.4875000000020093 1.0 0.0
0.4750000000019601 1.0 0.0
0.4625000000019108 1.0 0.0
0.4500000000018616 1.0 0.0
0.4375000000018123 1.0 0.0
0.425000000001763 1.0 0.0
0.4125000000017136 1.0 0.0
0.4000000000016644 1.0 0.0
0.3875000000016123 1.0 0.0
0.3750000000015603 1.0 0.0
0.3625000000015083 1.0 0.0
0.3500000000014563 1.0 0.0
0.3375000000014042 1.0 0.0
0.3250000000013522 1.0 0.0
0.3125000000013003 1.0 0.0
0.3000000000012483 1.0 0.0
0.2875000000011962 1.0 0.0
0.2750000000011442 1.0 0.0
0.2625000000010922 1.0 0.0
0.2500000000010403 1.0 0.0
0.2375000000009883 1.0 0.0
0.2250000000009362 1.0 0.0
0.2125000000008842 1.0 0.0
0.2000000000008322 1.0 0.0
0.1875000000007802 1.0 0.0
0.1750000000007281 1.0 0.0
0.1625000000006761 1.0 0.0
0.1500000000006241 1.0 0.0
0.1375000000005721 1.0 0.0
0.12500000000052 1.0 0.0
0.112500000000468 1.0 0.0
0.100000000000416 1.0 0.0
0.08750000000036395 1.0 0.0
0.07500000000031193 1.0 0.0
0.06250000000026001 1.0 0.0
0.05000000000020799 1.0 0.0
0.03750000000015596 1.0 0.0
0.02500000000010394 1.0 0.0
0.01250000000005191 1.0 0.0
0.0 0.9874999999999439 0.0
0.0 0.9749999999998877 0.0
0.0 0.9624999999998541 0.0
0.0 0.9499999999998356 0.0
0.0 0.9374999999997805 0.0
0.0 0.9249999999996992 0.0
0.0 0.9124999999996414 0.0
0.0 0.8999999999995836 0.0
0.0 0.8874999999996454 0.0
0.0 0.8749999999997078 0.0
0.0 0.8624999999997771 0.0
0.0 0.8499999999998515 0.0
0.0 0.837499999999895 0.0
0.0 0.8249999999999216 0.0
0.0 0.8124999999999571 0.0
0.0 0.7999999999999998 0.0
0.0 0.7875000000000937 0.0
0.0 0.77500000000021 0.0
0.0 0.7625000000002968 0.0
0.0 0.7500000000003858 0.0
0.0 0.7375000000004739 0.0
0.0 0.7250000000005448 0.0
0.0 0.7125000000005861 0.0
0.0 0.7000000000006934 0.0
0.0 0.6875000000008109 0.0
0.0 0.6750000000009306 0.0
0.0 0.6625000000010091 0.0
0.0 0.6500000000010593 0.0
0.0 0.6375000000011386 0.0
0.0 0.6250000000012101 0.0
0.0 0.612500000001312 0.0
0.0 0.6000000000013869 0.0
0.0 0.5875000000014601 0.0
0.0 0.5750000000015277 0.0
0.0 0.5625000000016089 0.0
0.0 0.5500000000016854 0.0
0.0 0.5375000000017889 0.0
0.0 0.5250000000018821 0.0
0.0 0.5125000000019756 0.0
0.0 0.5000000000020587 0.0
0.0 0.4875000000020093 0.0
0.0 0.4750000000019601 0.0
0.0 0.4625000000019108 0.0
0.0 0.4500000000018616 0.0
0.0 0.4375000000018123 0.0
0.0 0.425000000001763 0.0
0.0 0.4125000000017136 0.0
0.0 0.4000000000016644 0.0
0.0 0.3875000000016123 0.0
0.0 0.3750000000015603 0.0
0.0 0.3625000000015083 0.0
0.0 0.3500000000014563 0.0
0.0 0.3375000000014042 0.0
0.0 0.3250000000013522 0.0
0.0 0.3125000000013003 0.0
0.0 0.3000000000012483 0.0
0.0 0.2875000000011962 0.0
0.0 0.2750000000011442 0.0
0.0 0.2625000000010922 0.0
0.0 0.2500000000010403 0.0
0.0 0.2375000000009883 0.0
0.0 0.2250000000009362 0.0
0.0 0.2125000000008842 0.0
0.0 0.2000000000008322 0.0
0.0 0.1875000000007802 0.0
0.0 0.1750000000007281 0.0
0.0 0.1625000000006761 0.0
0.0 0.1500000000006241 0.0
0.0 0.1375000000005721 0.0
0.0 0.12500000000052 0.0
0.0 0.112500000000468 0.0
0.0 0.100000000000416 0.0
0.0 0.08750000000036395 0.0
0.0 0.07500000000031193 0.0
0.0 0.06250000000026001 0.0
0.0 0.05000000000020799 0.0
0.0 0.03750000000015596 0.0
0.0 0.02500000000010394 0.0
0.0 0.01250000000005191 0.0
0.499547313951317 0.4984202829398231 0.0
0.7057142553715264 0.7049957919913439 0.0
0.2942617789825218 0.706558362574613 0.0
0.7052750732513358 0.29408370064617073 0.0
0.2941161372558304 0.29425664999463297 0.0
0.49473409022248005 0.7865288457870021 0.0
0.21400675843102512 0.49559804899934157 0.0
0.7879606576561358 0.5053778129282838 0.0
0.505369301426186 0.2119891966328729 0.0
0.8286074034533916 0.8287576993256224 0.0
0.17122528584787128 0.8286011816233976 0.0
0.8287577004551061 0.17139259539200086 0.0
0.17140751986106711 0.17123186221929698 0.0
0.6412438345717256 0.8516520873564006 0.0
0.14868333985619164 0.6419476520576217 0.0
0.36001439100831745 0.8471882363166383 0.0
0.8472916681795735 0.639858398754968 0.0
0.8516551147624887 0.3587551765143301 0.0
0.1529024464427883 0.36006180552290556 0.0
0.3587547979315107 0.148343271772372 0.0
0.6398585806283599 0.15270777331315408 0.0
0.5665851234669081 0.6415505082226679 0.0
0.3688065763014604 0.5781443560211958 0.0
0.6448511073779454 0.4469929790001165 0.0
0.43335085497228876 0.35323599965884955 0.0
0.42653529248703315 0.6555720715037009 0.0
0.6657620768186652 0.5502649260729648 0.0
0.3566111211511165 0.42874186251021185 0.0
0.5447859278293945 0.34262223816401394 0.0
0.4594948214297615 0.8920313032464312 0.0
[...]
POINT_DATA 7905
VECTORS vector double
0.0 0.0 0.0
0.0 0.0 0.0
0.0 0.0 0.0
0.0 0.0 0.0
0.0 0.0 0.0
0.0 0.0 0.0
0.0 0.0 0.0
0.0 0.0 0.0
0.0 0.0 0.0
0.0 0.0 0.0
0.0 0.0 0.0
0.0 0.0 0.0
0.0 0.0 0.0
0.0 0.0 0.0
0.0 0.0 0.0
0.0 0.0 0.0
0.0 0.0 0.0
0.0 0.0 0.0
0.0 0.0 0.0
0.0 0.0 0.0
0.0 0.0 0.0
0.0 0.0 0.0
0.0 0.0 0.0
0.0 0.0 0.0
0.0 0.0 0.0
0.0 0.0 0.0
0.0 0.0 0.0
0.0 0.0 0.0
0.0 0.0 0.0
0.0 0.0 0.0
0.0 0.0 0.0
0.0 0.0 0.0
0.0 0.0 0.0
0.0 0.0 0.0
0.0 0.0 0.0
0.0 0.0 0.0
0.0 0.0 0.0
0.0 0.0 0.0
0.0 0.0 0.0
0.0 0.0 0.0
0.0 0.0 0.0
0.0 0.0 0.0
0.0 0.0 0.0
0.0 0.0 0.0
0.0 0.0 0.0
0.0 0.0 0.0
0.0 0.0 0.0
0.0 0.0 0.0
0.0 0.0 0.0
0.0 0.0 0.0
0.0 0.0 0.0
0.0 0.0 0.0
0.0 0.0 0.0
0.0 0.0 0.0
0.0 0.0 0.0
0.0 0.0 0.0
0.0 0.0 0.0
0.0 0.0 0.0
0.0 0.0 0.0
0.0 0.0 0.0
0.0 0.0 0.0
0.0 0.0 0.0
0.0 0.0 0.0
0.0 0.0 0.0
0.0 0.0 0.0
0.0 0.0 0.0
0.0 0.0 0.0
0.0 0.0 0.0
0.0 0.0 0.0
0.0 0.0 0.0
0.0 0.0 0.0
0.0 0.0 0.0
0.0 0.0 0.0
0.0 0.0 0.0
0.0 0.0 0.0
0.0 0.0 0.0
0.0 0.0 0.0
0.0 0.0 0.0
0.0 0.0 0.0
0.0 0.0 0.0
0.0 0.0 0.0
0.0 0.0 0.0
0.0 0.0 0.0
0.0 0.0 0.0
0.0 0.0 0.0
0.0 0.0 0.0
0.0 0.0 0.0
0.0 0.0 0.0
0.0 0.0 0.0
0.0 0.0 0.0
0.0 0.0 0.0
0.0 0.0 0.0
0.0 0.0 0.0
0.0 0.0 0.0
0.0 0.0 0.0
0.0 0.0 0.0
0.0 0.0 0.0
0.0 0.0 0.0
0.0 0.0 0.0
0.0 0.0 0.0
0.0 0.0 0.0
0.0 0.0 0.0
0.0 0.0 0.0
0.0 0.0 0.0
0.0 0.0 0.0
0.0 0.0 0.0
0.0 0.0 0.0
0.0 0.0 0.0
0.0 0.0 0.0
0.0 0.0 0.0
0.0 0.0 0.0
0.0 0.0 0.0
0.0 0.0 0.0
0.0 0.0 0.0
0.0 0.0 0.0
0.0 0.0 0.0
0.0 0.0 0.0
0.0 0.0 0.0
0.0 0.0 0.0
0.0 0.0 0.0
0.0 0.0 0.0
0.0 0.0 0.0
0.0 0.0 0.0
0.0 0.0 0.0
0.0 0.0 0.0
0.0 0.0 0.0
0.0 0.0 0.0
0.0 0.0 0.0
0.0 0.0 0.0
0.0 0.0 0.0
0.0 0.0 0.0
0.0 0.0 0.0
0.0 0.0 0.0
0.0 0.0 0.0
0.0 0.0 0.0
0.0 0.0 0.0
0.0 0.0 0.0
0.0 0.0 0.0
0.0 0.0 0.0
0.0 0.0 0.0
0.0 0.0 0.0
0.0 0.0 0.0
0.0 0.0 0.0
0.0 0.0 0.0
0.0 0.0 0.0
0.0 0.0 0.0
0.0 0.0 0.0
0.0 0.0 0.0
0.0 0.0 0.0
0.0 0.0 0.0
0.0 0.0 0.0
0.0 0.0 0.0
0.0 0.0 0.0
0.0 0.0 0.0
0.0 0.0 0.0
0.0 0.0 0.0
0.0 0.0 0.0
0.0 0.0 0.0
0.0 0.0 0.0
0.0 0.0 0.0
0.0 0.0 0.0
0.0 0.0 0.0
1.0 0.0 0.0
1.0 0.0 0.0
1.0 0.0 0.0
1.0 0.0 0.0
1.0 0.0 0.0
1.0 0.0 0.0
1.0 0.0 0.0
1.0 0.0 0.0
1.0 0.0 0.0
1.0 0.0 0.0
1.0 0.0 0.0
1.0 0.0 0.0
1.0 0.0 0.0
1.0 0.0 0.0
1.0 0.0 0.0
1.0 0.0 0.0
1.0 0.0 0.0
1.0 0.0 0.0
1.0 0.0 0.0
1.0 0.0 0.0
1.0 0.0 0.0
1.0 0.0 0.0
1.0 0.0 0.0
1.0 0.0 0.0
1.0 0.0 0.0
1.0 0.0 0.0
1.0 0.0 0.0
1.0 0.0 0.0
1.0 0.0 0.0
1.0 0.0 0.0
1.0 0.0 0.0
1.0 0.0 0.0
1.0 0.0 0.0
1.0 0.0 0.0
1.0 0.0 0.0
1.0 0.0 0.0
1.0 0.0 0.0
1.0 0.0 0.0
1.0 0.0 0.0
1.0 0.0 0.0
1.0 0.0 0.0
1.0 0.0 0.0
1.0 0.0 0.0
1.0 0.0 0.0
1.0 0.0 0.0
1.0 0.0 0.0
1.0 0.0 0.0
1.0 0.0 0.0
1.0 0.0 0.0
1.0 0.0 0.0
1.0 0.0 0.0
1.0 0.0 0.0
1.0 0.0 0.0
1.0 0.0 0.0
1.0 0.0 0.0
1.0 0.0 0.0
1.0 0.0 0.0
1.0 0.0 0.0
1.0 0.0 0.0
1.0 0.0 0.0
1.0 0.0 0.0
1.0 0.0 0.0
1.0 0.0 0.0
1.0 0.0 0.0
1.0 0.0 0.0
1.0 0.0 0.0
1.0 0.0 0.0
1.0 0.0 0.0
1.0 0.0 0.0
1.0 0.0 0.0
1.0 0.0 0.0
1.0 0.0 0.0
1.0 0.0 0.0
1.0 0.0 0.0
1.0 0.0 0.0
1.0 0.0 0.0
1.0 0.0 0.0
1.0 0.0 0.0
1.0 0.0 0.0
0.0 0.0 0.0
0.0 0.0 0.0
0.0 0.0 0.0
0.0 0.0 0.0
0.0 0.0 0.0
0.0 0.0 0.0
0.0 0.0 0.0
0.0 0.0 0.0
0.0 0.0 0.0
0.0 0.0 0.0
0.0 0.0 0.0
0.0 0.0 0.0
0.0 0.0 0.0
0.0 0.0 0.0
0.0 0.0 0.0
0.0 0.0 0.0
0.0 0.0 0.0
0.0 0.0 0.0
0.0 0.0 0.0
0.0 0.0 0.0
0.0 0.0 0.0
0.0 0.0 0.0
0.0 0.0 0.0
0.0 0.0 0.0
0.0 0.0 0.0
0.0 0.0 0.0
0.0 0.0 0.0
0.0 0.0 0.0
0.0 0.0 0.0
0.0 0.0 0.0
0.0 0.0 0.0
0.0 0.0 0.0
0.0 0.0 0.0
0.0 0.0 0.0
0.0 0.0 0.0
0.0 0.0 0.0
0.0 0.0 0.0
0.0 0.0 0.0
0.0 0.0 0.0
0.0 0.0 0.0
0.0 0.0 0.0
0.0 0.0 0.0
0.0 0.0 0.0
0.0 0.0 0.0
0.0 0.0 0.0
0.0 0.0 0.0
0.0 0.0 0.0
0.0 0.0 0.0
0.0 0.0 0.0
0.0 0.0 0.0
0.0 0.0 0.0
0.0 0.0 0.0
0.0 0.0 0.0
0.0 0.0 0.0
0.0 0.0 0.0
0.0 0.0 0.0
0.0 0.0 0.0
0.0 0.0 0.0
0.0 0.0 0.0
0.0 0.0 0.0
0.0 0.0 0.0
0.0 0.0 0.0
0.0 0.0 0.0
0.0 0.0 0.0
0.0 0.0 0.0
0.0 0.0 0.0
0.0 0.0 0.0
0.0 0.0 0.0
0.0 0.0 0.0
0.0 0.0 0.0
0.0 0.0 0.0
0.0 0.0 0.0
0.0 0.0 0.0
0.0 0.0 0.0
0.0 0.0 0.0
0.0 0.0 0.0
0.0 0.0 0.0
0.0 0.0 0.0
0.0 0.0 0.0
-0.178753649452 0.0479332996553 0.0
-0.163685706018 -0.124986892396 0.0
-0.0961680193765 0.190360383934 0.0
-0.0791979026186 -0.0524205729317 0.0
-0.0639824613708 0.0463648136473 0.0
0.012050640582 0.108992346508 0.0
-0.064133655658 0.122233086513 0.0
-0.158800527063 -0.187178334366 0.0
-0.0773467179614 0.000756747638817 0.0
0.0109582105487 -0.303993610694 0.0
-0.0763757381567 0.228540664951 0.0
-0.0184175173392 -0.019300909617 0.0
-0.0199175078339 0.0186967972552 0.0
0.229329495759 0.00482986603282 0.0
-0.0481219450671 0.174385325522 0.0
0.0663608688181 0.124486392492 0.0
-0.173111594099 -0.342148470533 0.0
-0.0406753959368 -0.0748958528473 0.0
-0.0298374090783 0.0640895643119 0.0
-0.048339327882 0.0119157689263 0.0
-0.0507555667755 -0.0132729024284 0.0
-0.184608139393 0.0482574773488 0.0
-0.133655880794 0.137036920683 0.0
-0.182125384046 -0.0669360432908 0.0
-0.115028796633 0.034865664495 0.0
-0.135840537386 0.142595410326 0.0
-0.231217194426 -0.0933895299672 0.0
-0.11205078913 0.0794837790902 0.0
-0.126975814462 -0.00741193856357 0.0
0.344105247472 0.0598487198272 0.0
-0.0186447282284 0.0833956468614 0.0
-0.0671365327691 -0.188890398036 0.0
-0.0559873939505 -0.00191481116023 0.0
0.424375646112 -0.0544513081056 0.0
-0.0371144312738 0.190207651665 0.0
-0.0100060965847 -0.0258246570591 0.0
-0.025021865919 0.00751412496282 0.0
-0.119947220589 -0.453900616683 0.0
0.144116993663 0.108834321509 0.0
-0.0254670646699 -0.00889927177089 0.0
-0.0110276859036 0.0284749317439 0.0
-0.00997798233299 0.0340981728136 0.0
-0.0734634480821 0.169610143395 0.0
-0.100433613633 -0.101308433577 0.0
-0.0780672429717 0.0241416464427 0.0
-0.0589732157923 0.159352297165 0.0
-0.228381548903 -0.211914753062 0.0
-0.0664129905156 0.0812642536303 0.0
-0.0868651053182 -0.0222775934423 0.0
0.0659919517422 -0.368907787428 0.0
-0.0809020002293 0.256416693173 0.0
-0.00291294259484 -0.0037935914639 0.0
-0.00396658124673 0.00449821176699 0.0
0.50177265979 0.0196171386959 0.0
-0.01592205834 0.104158139461 0.0
-0.0220673664024 -0.0759068043884 0.0
-0.0376669428902 0.00284011378014 0.0
-0.172079315202 -0.305026323276 0.0
-0.060326663574 0.187613793288 0.0
-0.0488299510711 -0.0295801032403 0.0
-0.0384834809987 0.0448840297032 0.0
0.0287472226465 -0.108658483896 0.0
-0.0773825173678 0.211903959945 0.0
-0.0431823251671 -0.0504923789328 0.0
-0.0451151020738 0.0254780092338 0.0
-0.174906116111 0.092842826355 0.0
-0.214481840431 -0.000854208452231 0.0
-0.146448717666 0.0911352136861 0.0
-0.170216385098 -0.00771699272407 0.0
-0.214205762527 -0.0520469589243 0.0
-0.11781531976 0.167431301566 0.0
-0.125511543662 -0.0484321948828 0.0
-0.0894453321411 0.0555182606508 0.0
0.603375000628 -0.00340906306918 0.0
-0.0140616953014 0.117204251838 0.0
-0.00808920477166 -0.0352815743363 0.0
-0.0265876734856 0.0032722270911 0.0
-0.0615001287756 -0.259100054407 0.0
-0.0293075962017 -0.0040185189032 0.0
0.400776353211 0.0475164066585 0.0
-0.00812433491116 0.0396659000552 0.0
0.40107645125 -0.110453080362 0.0
-0.0527439997862 0.226370339183 0.0
-0.0036052318151 -0.00884186021013 0.0
-0.0103666549483 0.00480976954446 0.0
-0.0877079314321 -0.522276088249 0.0
-0.00914128473771 -0.00502195528398 0.0
0.104446976934 0.131932282223 0.0
-0.00473683900963 0.0110596054387 0.0
-0.116406649 0.112406097005 0.0
-0.103223809546 0.120426455553 0.0
-0.195094279239 -0.135031059152 0.0
-0.0992004524645 0.00559888800774 0.0
0.153833509742 0.061280693902 0.0
-0.0481645842379 0.141717270292 0.0
-0.0798763590676 -0.135134943063 0.0
-0.0597514090179 0.0067195500278 0.0
0.0162135523103 0.121585794975 0.0
-0.0400299397482 0.0916580670236 0.0
-0.150580977291 -0.258185180212 0.0
-0.0566045063497 -0.00894368704348 0.0
-0.148069949476 0.0428986676138 0.0
-0.141657948273 0.0148417204855 0.0
-0.147028736056 -0.00933328678618 0.0
-0.160547381421 0.0180658742324 0.0
-0.000657925218229 -0.0015241213701 0.0
-0.000669527497932 -0.000515354002648 0.0
-0.00289653152945 0.00143354517538 0.0
-0.000851618758327 0.00072479056781 0.0
0.370567011751 -0.14783640811 0.0
0.0629254881932 -0.374364590516 0.0
-0.0678605617586 0.266771485165 0.0
-0.061022102648 0.281067021057 0.0
-0.00239347547888 -0.00126009983825 0.0
-0.00104867125538 0.00227580790677 0.0
-0.0557278533935 -0.517510026123 0.0
0.116450177248 0.150032642721 0.0
-0.124399247038 0.0150861281636 0.0
-0.131402106117 0.0388815078032 0.0
-0.12924372602 0.131562711318 0.0
-0.0879234373885 0.138396318798 0.0
-0.109606940131 0.152776172385 0.0
-0.22074417404 -0.119778917669 0.0
-0.220437117641 -0.166785789336 0.0
-0.238155803797 -0.137996747255 0.0
-0.10717730262 0.099480902053 0.0
-0.0867010270663 0.103286189444 0.0
-0.0918725802901 0.0849506067404 0.0
-0.111960166124 -0.000737756347534 0.0
-0.0974291920959 -0.00782335520359 0.0
-0.10812046377 -0.0187393256579 0.0
-0.141918690494 0.114379412441 0.0
-0.164596697122 0.0940738303739 0.0
-0.154959740314 0.118863450966 0.0
-0.153836451936 0.123499507884 0.0
-0.140880842129 0.140564552073 0.0
-0.20624258249 -0.0395790691456 0.0
-0.195355180711 -0.00569977954106 0.0
-0.177292050617 -0.0355938903502 0.0
-0.213693044454 -0.0779761744054 0.0
-0.22807021646 -0.0503278137008 0.0
-0.059797731617 0.114568902013 0.0
-0.0373524345 0.134113160606 0.0
-0.0834312946166 0.124530590987 0.0
-0.0688921956979 0.104504728832 0.0
-0.183199257437 -0.162454287588 0.0
-0.203221628297 -0.206855642692 0.0
-0.0897518010737 0.00302184599236 0.0
-0.0837622434302 -0.00780136961342 0.0
-0.0677197108742 0.178921023447 0.0
-0.0809331332178 0.194121406794 0.0
-0.0640516391912 0.197817266727 0.0
0.0768488229034 0.0167227449151 0.0
-0.00569521274473 -0.0347640189915 0.0
0.131195270057 -0.0358989399874 0.0
-0.0613723097691 0.0177524849808 0.0
-0.0605896212561 0.0266649955307 0.0
-0.0482176063143 0.0182736779856 0.0
-0.0706195812407 -0.0926604042208 0.0
-0.0689915028974 -0.0735916088556 0.0
-0.0430246799648 -0.0634169746255 0.0
-0.0874767492751 0.201274726123 0.0
-0.0957950505548 0.186727410544 0.0
-0.0857172969665 -0.116790682068 0.0
-0.111458568698 -0.0468727174862 0.0
-0.0557828406398 0.0358960865699 0.0
-0.0714586966114 0.0370335825606 0.0
-0.0637523456403 -0.0551585845525 0.0
-0.0915212832074 -0.0702257571303 0.0
-0.197695751314 -0.353130258844 0.0
-0.215998899507 -0.26552010007 0.0
-0.212572274555 -0.295891725707 0.0
-0.0113566775195 0.157495601555 0.0
-0.0600003951537 0.17407681476 0.0
-0.0160273394952 0.150608728613 0.0
-0.0509288596191 -0.0208020218119 0.0
-0.0669771084844 -0.0293494922529 0.0
-0.0651312211088 -0.0190862044772 0.0
-0.0346669310493 0.0551690798153 0.0
-0.0511293210461 0.0610476477491 0.0
-0.0462594077906 0.0726940688502 0.0
-0.131280127278 0.0645917357118 0.0
-0.116404443427 0.0572500813632 0.0
0.635176837981 0.0184414329706 0.0
0.659482593144 0.0154619936074 0.0
-0.00465525697727 0.0411201421843 0.0
-0.00531876890227 0.0521140470133 0.0
-0.0201900858918 -0.118432053896 0.0
-0.0152885666949 -0.0853432860832 0.0
-0.0297935766224 -0.00102839918831 0.0
-0.0315714327157 -1.64014697088e-05 0.0
-0.0197372833305 -0.140690598536 0.0
-0.0667937124507 -0.228977682479 0.0
-0.0240429252672 -0.00139988922497 0.0
-0.0376038565449 -0.00380398590199 0.0
0.657625330094 0.0165097137003 0.0
0.363787044767 0.0529921055147 0.0
-0.00303740788846 0.0278954685731 0.0
-0.0123691819627 0.0558912121919 0.0
-0.189370228219 -0.101453984242 0.0
-0.108431828871 0.0173273225761 0.0
-0.215089061194 -0.176179051292 0.0
-0.168762810328 -0.204736033999 0.0
-0.0893383436717 0.17973010116 0.0
-0.0825541036 0.193160923523 0.0
-0.0839369450536 -0.0390800259215 0.0
-0.0642114828656 -0.0411209611017 0.0
-0.066296828105 0.0601972898003 0.0
-0.0526999360968 0.0473650801014 0.0
-0.125058450689 0.156499866329 0.0
-0.125021532888 0.155575272621 0.0
-0.0998250827078 0.0673169633426 0.0
-0.102404127523 0.0477300966374 0.0
-0.148142711465 0.0683743541915 0.0
-0.128169432244 0.0870909225228 0.0
-0.1845886267 0.0665900992547 0.0
-0.166426763966 0.0705139536097 0.0
-0.180723276615 0.021501541792 0.0
-0.197521283284 0.0302701111889 0.0
-0.124374451265 -0.279857468876 0.0
-0.116645211196 -0.32708158388 0.0
-0.0496466515999 -0.00710267758189 0.0
-0.0396139778165 -0.00787676261038 0.0
0.171090051349 0.091866582221 0.0
0.204985668105 0.0861955424009 0.0
-0.0251939344271 0.0730241111053 0.0
-0.0171534273886 0.0534934351503 0.0
0.724466003863 -0.0138505978978 0.0
0.682814753006 -0.0255666065626 0.0
-0.00966091358026 0.107350416939 0.0
-0.0143756051952 0.131703133937 0.0
-0.00218329465269 -0.0128887654124 0.0
-0.00182649384772 -0.00871169904783 0.0
-0.0165493431189 0.00189569096981 0.0
-0.0130152803087 0.00213359888584 0.0
-0.0460021161315 -0.35252113191 0.0
-0.0381203675105 -0.275542767017 0.0
-0.0130030240799 -0.00257116686689 0.0
-0.0176230891406 -0.00243621674169 0.0
0.45247534602 0.0422054956081 0.0
0.525785592838 0.0309516668182 0.0
-0.00249847662925 0.0122194269588 0.0
-0.00281592038484 0.0171941652714 0.0
0.425946560664 0.0355606973874 0.0
0.720921044763 0.00827291777027 0.0
-0.0174875129073 0.0943916407228 0.0
-0.0045803040787 0.0571314133077 0.0
-0.0377555874595 -0.116235372433 0.0
-0.0085579832943 -0.0527025013695 0.0
-0.0427367611177 0.00135487447703 0.0
-0.0280941237502 0.000849431648142 0.0
-0.156407304005 -0.401959328242 0.0
-0.164947007477 -0.409087293793 0.0
0.0872852042718 0.12177521687 0.0
-0.0110036702049 0.165185627751 0.0
-0.0381226088051 -0.0126597651308 0.0
-0.0358205374485 -0.0187611103132 0.0
-0.0202478644602 0.0461040078746 0.0
-0.0242381748113 0.0388247761275 0.0
0.0815596233312 0.0838981679385 0.0
0.217807540363 0.0660858144774 0.0
0.116246043016 0.0930188937723 0.0
-0.0561572545259 0.134413757673 0.0
-0.0352404237309 0.117313772576 0.0
-0.0432782019825 0.110874498231 0.0
-0.115552333214 -0.162240482894 0.0
-0.079695069475 -0.158692722499 0.0
-0.123116782319 -0.202246921548 0.0
-0.068891714014 0.00500860534224 0.0
-0.0561636237119 0.00202990313314 0.0
-0.0636494783196 -0.00116621663124 0.0
-0.196657558294 0.00744642473276 0.0
-0.157529195114 -0.0101019554399 0.0
-0.144807183478 0.0449051311121 0.0
-0.108829377418 0.17069285712 0.0
-0.112592399788 0.153413492069 0.0
-0.151422211674 -0.0588707249526 0.0
-0.123001629197 -0.0726162183183 0.0
-0.153208579571 -0.089041511477 0.0
-0.0872397526247 0.040315466083 0.0
-0.0979074796059 0.030172809511 0.0
0.20145803632 -0.145588527529 0.0
0.185544744067 -0.0896424114064 0.0
0.0341751235267 -0.193585628524 0.0
-0.0676379779423 0.230496658163 0.0
-0.0627160301485 0.214537810507 0.0
-0.0780865280003 0.224368696519 0.0
-0.0151033694975 -0.0249252466554 0.0
-0.0247874142405 -0.0403518214945 0.0
-0.0281987157307 -0.0330171936778 0.0
-0.0240051909153 0.0134585872832 0.0
-0.0349384383046 0.0160554959642 0.0
-0.0318950659135 0.0229014627954 0.0
-0.190570508166 -0.0873295011834 0.0
-0.104736725056 0.179438031331 0.0
-0.101424782455 -0.0538184835436 0.0
-0.0777814826418 0.0514426928366 0.0
-0.208376928048 0.0267194041887 0.0
-0.224517085551 -0.0227879752297 0.0
-0.235717953131 -0.0799893994779 0.0
-0.150132744329 -0.0329251430877 0.0
-0.126368333174 -0.0277795820584 0.0
0.765490031589 0.00307597190879 0.0
-0.00404060492876 0.0616916997782 0.0
-0.00484786749255 -0.0332987523945 0.0
-0.0238337052276 0.00115295210864 0.0
0.0314769943813 0.118780481597 0.0
-0.0105782746444 0.138957363498 0.0
-0.170049919795 -0.229276826404 0.0
-0.204589319352 -0.254401183857 0.0
-0.0524424739626 0.103603947826 0.0
-0.0542047133843 0.0895115915025 0.0
-0.0711309679719 -0.0058100344163 0.0
-0.0729935300829 -0.0131578950747 0.0
0.412557650399 -0.0878398023649 0.0
0.655512845215 -0.0360240971581 0.0
-0.0454359747784 0.210609856855 0.0
-0.0192558735986 0.151528395565 0.0
-0.0060066770939 -0.0149755985527 0.0
-0.001157944394 -0.00490592894362 0.0
-0.0162547501429 0.0063588261328 0.0
-0.00867402865288 0.00178972956501 0.0
-0.0453408298215 -0.399690754525 0.0
-0.104544310487 -0.501579738773 0.0
-0.00817174471897 -0.00198224665724 0.0
-0.0151040373323 -0.00711206445528 0.0
0.418924446127 0.0499634026109 0.0
0.114521297269 0.122787095329 0.0
-0.00168432350784 0.0072815508424 0.0
-0.00741865563918 0.0176997670676 0.0
-0.0439993943804 0.186552072854 0.0
0.308637519799 -0.0303727346539 0.0
-0.0369835959321 0.0108696576182 0.0
-0.0225990595371 -0.0479545031027 0.0
-0.100302534111 -0.322013645131 0.0
-0.120671706735 -0.443721487733 0.0
-0.0674609281308 0.205213627358 0.0
-0.0223222235131 0.179167687955 0.0
-0.0323544534556 -0.0258802060378 0.0
-0.0230514780503 -0.015088652728 0.0
-0.0283839644185 0.030874591288 0.0
-0.0166826074623 0.0256623399566 0.0
-0.000846571076543 -0.00280966972986 0.0
0.56707810159 -0.062544709268 0.0
-0.00545397270883 0.00160017705961 0.0
-0.033674943177 0.195310641248 0.0
-0.0526520048474 -0.468878736759 0.0
-0.00482678961802 -0.00159185225524 0.0
0.312142820497 0.0768710540485 0.0
-0.00129019673632 0.00426123398581 0.0
0.295628516789 0.0424948077696 0.0
-0.0320688139274 0.129216220398 0.0
-0.0507188785945 -0.11361881719 0.0
-0.0502630426537 0.00473131025265 0.0
-0.0036598091851 -0.0067147871731 0.0
-0.00768498015676 0.00531567026894 0.0
0.250984410961 -0.201191812845 0.0
-0.0777224530371 0.258276250008 0.0
-0.0556832626635 -0.499019459846 0.0
-0.00627316464281 -0.00509013766879 0.0
-0.00889977654756 0.190032026799 0.0
-0.00490863001911 0.00816466030461 0.0
-0.0859322343124 -0.209990249718 0.0
-0.0806709514361 0.208817102044 0.0
-0.0452751358337 -0.0392783568286 0.0
-0.0415943324446 0.0343861613764 0.0
-0.0938525428787 0.08298007628 0.0
-0.152004884462 0.0810277474234 0.0
-0.0978605847088 0.143326883759 0.0
-0.119223054341 0.131327950708 0.0
-0.162397442678 -0.122869383195 0.0
-0.0932011192267 0.0159240476787 0.0
0.115220529193 0.101399552874 0.0
-0.0363718769287 0.0919718471165 0.0
0.0525859901324 0.123578343253 0.0
-0.0388789609551 0.0806834623758 0.0
-0.137905074404 -0.247087392135 0.0
-0.0592382652049 -0.00573535921351 0.0
-0.176283450329 -0.290829126812 0.0
-0.0603301367233 -0.0113637021176 0.0
0.780194645546 -0.00478409176273 0.0
0.527993015995 -0.0175799072997 0.0
-0.00554213613505 0.0799717451367 0.0
-0.0222011658183 0.148647431205 0.0
0.287514064182 0.0691279444206 0.0
0.413399782046 -0.00153641482391 0.0
-0.0289078043309 0.153043954342 0.0
-0.089866063836 -0.350849588207 0.0
-0.00946111021854 0.0350519156924 0.0
-0.028248893697 -0.0061064382073 0.0
0.626993199842 0.0193425463808 0.0
-0.0244695031308 -0.187248963582 0.0
-0.00252523000065 0.0208112306866 0.0
-0.0202326210128 -0.00173114854971 0.0
-0.00205687320838 -0.0161536515952 0.0
-0.00928993274835 -0.0318190333031 0.0
-0.0178007703024 0.0012774546495 0.0
-0.0269604893279 0.00502160781529 0.0
-0.0200800047092 -0.054271575315 0.0
-0.0369110632581 0.00683099551445 0.0
-0.015213926787 0.0856957640334 0.0
-0.0773831333868 0.14460586912 0.0
-0.13942723131 -0.14376011307 0.0
-0.0806934211252 0.0106511623361 0.0
-0.158076343847 0.104737691422 0.0
-0.185568331767 0.0704997090867 0.0
-0.124670348571 0.108631214124 0.0
0.203495530542 -0.194485612969 0.0
-0.0747632945661 0.244510335566 0.0
-0.0762312781382 -0.462190812261 0.0
-0.00885669377792 -0.0145779328366 0.0
-0.0319739271321 0.19315947949 0.0
-0.0150951406131 0.010045348265 0.0
-0.0133661530005 -0.0104415521734 0.0
-0.0106531159459 0.0159476378731 0.0
0.182351736285 0.0380480297049 0.0
0.0593023271181 0.058996819979 0.0
-0.0495803372175 0.158169844086 0.0
-0.0664343715074 0.157828792399 0.0
-0.0982427511701 -0.125043495948 0.0
-0.0617781693749 -0.105130454454 0.0
-0.0565346108085 0.0101263583185 0.0
-0.0691272380731 0.0126267522257 0.0
-0.105415802411 0.16852236499 0.0
-0.232371924787 -0.128539458895 0.0
-0.0825000887616 0.0681645010431 0.0
-0.104300265804 -0.0354406603102 0.0
0.0475777433357 -0.343394447448 0.0
-0.0804181737208 0.240753433975 0.0
-0.00845632654188 -0.00999586587989 0.0
-0.0102453042397 0.0106105329201 0.0
-0.19994427056 0.0498153198322 0.0
0.557175623196 0.00679223246252 0.0
0.794009912817 -0.000647562090376 0.0
-0.0149802304496 0.112857707958 0.0
-0.00398087291094 0.0663459329807 0.0
0.348823604087 0.0208637049884 0.0
-0.0310979015899 0.143046652607 0.0
-0.0134091850933 -0.0513136793318 0.0