# vtk DataFile Version 2.0
2D Simulation Python
ASCII
DATASET UNSTRUCTURED_GRID
FIELD FieldData 1
NODES 1 2 int
7905 15488

POINTS 7905 double
0.0 0.0 0.0
1.0 0.0 0.0
1.0 1.0 0.0
0.0 1.0 0.0
0.01249999999997639 0.0 0.0
0.02499999999995297 0.0 0.0
0.03749999999992721 0.0 0.0
0.04999999999989927 0.0 0.0
0.0624999999998716 0.0 0.0
0.07499999999985263 0.0 0.0
0.08749999999983366 0.0 0.0
0.09999999999981467 0.0 0.0
0.1124999999997956 0.0 0.0
0.1249999999997765 0.0 0.0
0.1374999999997401 0.0 0.0
0.1499999999997036 0.0 0.0
0.1624999999996672 0.0 0.0
0.1749999999996308 0.0 0.0
0.1874999999995943 0.0 0.0
0.1999999999995579 0.0 0.0
0.2124999999995214 0.0 0.0
0.224999999999485 0.0 0.0
0.2374999999994485 0.0 0.0
0.2499999999994121 0.0 0.0
0.2624999999993757 0.0 0.0
0.2749999999993393 0.0 0.0
0.2874999999993028 0.0 0.0
0.2999999999992664 0.0 0.0
0.3124999999992299 0.0 0.0
0.3249999999991935 0.0 0.0
0.3374999999991571 0.0 0.0
0.3499999999991207 0.0 0.0
0.3624999999990842 0.0 0.0
0.3749999999990478 0.0 0.0
0.3874999999990113 0.0 0.0
0.3999999999989749 0.0 0.0
0.4124999999989398 0.0 0.0
0.4249999999989048 0.0 0.0
0.4374999999988697 0.0 0.0
0.4499999999988346 0.0 0.0
0.4624999999987995 0.0 0.0
0.4749999999987644 0.0 0.0
0.4874999999987293 0.0 0.0
0.4999999999986943 0.0 0.0
0.5124999999987259 0.0 0.0
0.5249999999987575 0.0 0.0
0.5374999999987891 0.0 0.0
0.5499999999988205 0.0 0.0
0.5624999999988521 0.0 0.0
0.5749999999988837 0.0 0.0
0.5874999999989152 0.0 0.0
0.5999999999989468 0.0 0.0
0.6124999999989797 0.0 0.0
0.6249999999990127 0.0 0.0
0.6374999999990456 0.0 0.0
0.6499999999990784 0.0 0.0
0.6624999999991114 0.0 0.0
0.6749999999991443 0.0 0.0
0.6874999999991771 0.0 0.0
0.69999999999921 0.0 0.0
0.712499999999243 0.0 0.0
0.7249999999992759 0.0 0.0
0.7374999999993088 0.0 0.0
0.7499999999993416 0.0 0.0
0.7624999999993746 0.0 0.0
0.7749999999994075 0.0 0.0
0.7874999999994404 0.0 0.0
0.7999999999994734 0.0 0.0
0.8124999999995063 0.0 0.0
0.8249999999995392 0.0 0.0
0.8374999999995721 0.0 0.0
0.8499999999996051 0.0 0.0
0.862499999999638 0.0 0.0
0.8749999999996709 0.0 0.0
0.8874999999997039 0.0 0.0
0.8999999999997368 0.0 0.0
0.9124999999997697 0.0 0.0
0.9249999999998026 0.0 0.0
0.9374999999998355 0.0 0.0
0.9499999999998684 0.0 0.0
0.9624999999999013 0.0 0.0
0.9749999999999343 0.0 0.0
0.9874999999999672 0.0 0.0
1.0 0.01249999999997639 0.0
1.0 0.02499999999995297 0.0
1.0 0.03749999999992721 0.0
1.0 0.04999999999989927 0.0
1.0 0.0624999999998716 0.0
1.0 0.07499999999985263 0.0
1.0 0.08749999999983366 0.0
1.0 0.09999999999981467 0.0
1.0 0.1124999999997956 0.0
1.0 0.1249999999997765 0.0
1.0 0.1374999999997401 0.0
1.0 0.1499999999997036 0.0
1.0 0.1624999999996672 0.0
1.0 0.1749999999996308 0.0
1.0 0.1874999999995943 0.0
1.0 0.1999999999995579 0.0
1.0 0.2124999999995214 0.0
1.0 0.224999999999485 0.0
1.0 0.2374999999994485 0.0
1.0 0.2499999999994121 0.0
1.0 0.2624999999993757 0.0
1.0 0.2749999999993393 0.0
1.0 0.2874999999993028 0.0
1.0 0.2999999999992664 0.0
1.0 0.3124999999992299 0.0
1.0 0.3249999999991935 0.0
1.0 0.3374999999991571 0.0
1.0 0.3499999999991207 0.0
1.0 0.3624999999990842 0.0
1.0 0.3749999999990478 0.0
1.0 0.3874999999990113 0.0
1.0 0.3999999999989749 0.0
1.0 0.4124999999989398 0.0
1.0 0.4249999999989048 0.0
1.0 0.4374999999988697 0.0
1.0 0.4499999999988346 0.0
1.0 0.4624999999987995 0.0
1.0 0.4749999999987644 0.0
1.0 0.4874999999987293 0.0
1.0 0.4999999999986943 0.0
1.0 0.5124999999987259 0.0
1.0 0.5249999999987575 0.0
1.0 0.5374999999987891 0.0
1.0 0.5499999999988205 0.0
1.0 0.5624999999988521 0.0
1.0 0.5749999999988837 0.0
1.0 0.5874999999989152 0.0
1.0 0.5999999999989468 0.0
1.0 0.6124999999989797 0.0
1.0 0.6249999999990127 0.0
1.0 0.6374999999990456 0.0
1.0 0.6499999999990784 0.0
1.0 0.6624999999991114 0.0
1.0 0.6749999999991443 0.0
1.0 0.6874999999991771 0.0
1.0 0.69999999999921 0.0
1.0 0.712499999999243 0.0
1.0 0.7249999999992759 0.0
1.0 0.7374999999993088 0.0
1.0 0.7499999999993416 0.0
1.0 0.7624999999993746 0.0
1.0 0.7749999999994075 0.0
1.0 0.7874999999994404 0.0
1.0 0.7999999999994734 0.0
1.0 0.8124999999995063 0.0
1.0 0.8249999999995392 0.0
1.0 0.8374999999995721 0.0
1.0 0.8499999999996051 0.0
1.0 0.862499999999638 0.0
1.0 0.8749999999996709 0.0
1.0 0.8874999999997039 0.0
1.0 0.8999999999997368 0.0
1.0 0.9124999999997697 0.0
1.0 0.9249999999998026 0.0
1.0 0.9374999999998355 0.0
1.0 0.9499999999998684 0.0
1.0 0.9624999999999013 0.0
1.0 0.9749999999999343 0.0
1.0 0.9874999999999672 0.0
0.9874999999999439 1.0 0.0
0.9749999999998877 1.0 0.0
0.9624999999998541 1.0 0.0
0.9499999999998356 1.0 0.0
0.9374999999997805 1.0 0.0
0.9249999999996992 1.0 0.0
0.9124999999996414 1.0 0.0
0.8999999999995836 1.0 0.0
0.8874999999996454 1.0 0.0
0.8749999999997078 1.0 0.0
0.8624999999997771 1.0 0.0
0.8499999999998515 1.0 0.0
0.837499999999895 1.0 0.0
0.8249999999999216 1.0 0.0
0.8124999999999571 1.0 0.0
0.7999999999999998 1.0 0.0
0.7875000000000937 1.0 0.0
0.77500000000021 1.0 0.0
0.7625000000002968 1.0 0.0
0.7500000000003858 1.0 0.0
0.7375000000004739 1.0 0.0
0.7250000000005448 1.0 0.0
0.7125000000005861 1.0 0.0
0.7000000000006934 1.0 0.0
0.6875000000008109 1.0 0.0
0.6750000000009306 1.0 0.0
0.6625000000010091 1.0 0.0
0.6500000000010593 1.0 0.0
0.6375000000011386 1.0 0.0
0.6250000000012101 1.0 0.0
0.612500000001312 1.0 0.0
0.6000000000013869 1.0 0.0
0.5875000000014601 1.0 0.0
0.5750000000015277 1.0 0.0
0.5625000000016089 1.0 0.0
0.5500000000016854 1.0 0.0
0.5375000000017889 1.0 0.0
0.5250000000018821 1.0 0.0
0.5125000000019756 1.0 0.0
0.5000000000020587 1.0 0.0
0.4875000000020093 1.0 0.0
0.4750000000019601 1.0 0.0
0.4625000000019108 1.0 0.0
0.4500000000018616 1.0 0.0
0.4375000000018123 1.0 0.0
0.425000000001763 1.0 0.0
0.4125000000017136 1.0 0.0
0.4000000000016644 1.0 0.0
0.3875000000016123 1.0 0.0
0.3750000000015603 1.0 0.0
0.3625000000015083 1.0 0.0
0.3500000000014563 1.0 0.0
0.3375000000014042 1.0 0.0
0.3250000000013522 1.0 0.0
0.3125000000013003 1.0 0.0
0.3000000000012483 1.0 0.0
0.2875000000011962 1.0 0.0
0.2750000000011442 1.0 0.0
0.2625000000010922 1.0 0.0
0.2500000000010403 1.0 0.0
0.2375000000009883 1.0 0.0
0.2250000000009362 1.0 0.0
0.2125000000008842 1.0 0.0
0.2000000000008322 1.0 0.0
0.1875000000007802 1.0 0.0
0.1750000000007281 1.0 0.0
0.1625000000006761 1.0 0.0
0.1500000000006241 1.0 0.0
0.1375000000005721 1.0 0.0
0.12500000000052 1.0 0.0
0.112500000000468 1.0 0.0
0.100000000000416 1.0 0.0
0.08750000000036395 1.0 0.0
0.07500000000031193 1.0 0.0
0.06250000000026001 1.0 0.0
0.05000000000020799 1.0 0.0
0.03750000000015596 1.0 0.0
0.02500000000010394 1.0 0.0
0.01250000000005191 1.0 0.0
0.0 0.9874999999999439 0.0
0.0 0.9749999999998877 0.0
0.0 0.9624999999998541 0.0
0.0 0.9499999999998356 0.0
0.0 0.9374999999997805 0.0
0.0 0.9249999999996992 0.0
0.0 0.9124999999996414 0.0
0.0 0.8999999999995836 0.0
0.0 0.8874999999996454 0.0
0.0 0.8749999999997078 0.0
0.0 0.8624999999997771 0.0
0.0 0.8499999999998515 0.0
0.0 0.837499999999895 0.0
0.0 0.8249999999999216 0.0
0.0 0.8124999999999571 0.0
0.0 0.7999999999999998 0.0
0.0 0.7875000000000937 0.0
0.0 0.77500000000021 0.0
0.0 0.7625000000002968 0.0
0.0 0.7500000000003858 0.0
0.0 0.7375000000004739 0.0
0.0 0.7250000000005448 0.0
0.0 0.7125000000005861 0.0
0.0 0.7000000000006934 0.0
0.0 0.6875000000008109 0.0
0.0 0.6750000000009306 0.0
0.0 0.6625000000010091 0.0
0.0 0.6500000000010593 0.0
0.0 0.6375000000011386 0.0
0.0 0.6250000000012101 0.0
0.0 0.612500000001312 0.0
0.0 0.6000000000013869 0.0
0.0 0.5875000000014601 0.0
0.0 0.5750000000015277 0.0
0.0 0.5625000000016089 0.0
0.0 0.5500000000016854 0.0
0.0 0.5375000000017889 0.0
0.0 0.5250000000018821 0.0
0.0 0.5125000000019756 0.0
0.0 0.5000000000020587 0.0
0.0 0.4875000000020093 0.0
0.0 0.4750000000019601 0.0
0.0 0.4625000000019108 0.0
0.0 0.4500000000018616 0.0
0.0 0.4375000000018123 0.0
0.0 0.425000000001763 0.0
0.0 0.4125000000017136 0.0
0.0 0.4000000000016644 0.0
0.0 0.3875000000016123 0.0
0.0 0.3750000000015603 0.0
0.0 0.3625000000015083 0.0
0.0 0.3500000000014563 0.0
0.0 0.3375000000014042 0.0
0.0 0.3250000000013522 0.0
0.0 0.3125000000013003 0.0
0.0 0.3000000000012483 0.0
0.0 0.2875000000011962 0.0
0.0 0.2750000000011442 0.0
0.0 0.2625000000010922 0.0
0.0 0.2500000000010403 0.0
0.0 0.2375000000009883 0.0
0.0 0.2250000000009362 0.0
0.0 0.2125000000008842 0.0
0.0 0.2000000000008322 0.0
0.0 0.1875000000007802 0.0
0.0 0.1750000000007281 0.0
0.0 0.1625000000006761 0.0
0.0 0.1500000000006241 0.0
0.0 0.1375000000005721 0.0
0.0 0.12500000000052 0.0
0.0 0.112500000000468 0.0
0.0 0.100000000000416 0.0
0.0 0.08750000000036395 0.0
0.0 0.07500000000031193 0.0
0.0 0.06250000000026001 0.0
0.0 0.05000000000020799 0.0
0.0 0.03750000000015596 0.0
0.0 0.02500000000010394 0.0
0.0 0.01250000000005191 0.0
0.499547313951317 0.4984202829398231 0.0
0.7057142553715264 0.7049957919913439 0.0
0.2942617789825218 0.706558362574613 0.0
0.7052750732513358 0.29408370064617073 0.0
0.2941161372558304 0.29425664999463297 0.0
0.49473409022248005 0.7865288457870021 0.0
0.21400675843102512 0.49559804899934157 0.0
0.7879606576561358 0.5053778129282838 0.0
0.505369301426186 0.2119891966328729 0.0
0.8286074034533916 0.8287576993256224 0.0
0.17122528584787128 0.8286011816233976 0.0
0.8287577004551061 0.17139259539200086 0.0
0.17140751986106711 0.17123186221929698 0.0
0.6412438345717256 0.8516520873564006 0.0
0.14868333985619164 0.6419476520576217 0.0
0.36001439100831745 0.8471882363166383 0.0
0.8472916681795735 0.639858398754968 0.0
0.8516551147624887 0.3587551765143301 0.0
0.1529024464427883 0.36006180552290556 0.0
0.3587547979315107 0.148343271772372 0.0
0.6398585806283599 0.15270777331315408 0.0
0.5665851234669081 0.6415505082226679 0.0
0.3688065763014604 0.5781443560211958 0.0
0.6448511073779454 0.4469929790001165 0.0
0.43335085497228876 0.35323599965884955 0.0
0.42653529248703315 0.6555720715037009 0.0
0.6657620768186652 0.5502649260729648 0.0
0.3566111211511165 0.42874186251021185 0.0
0.5447859278293945 0.34262223816401394 0.0
0.4594948214297615 0.8920313032464312 0.0
[...]
POINT_DATA 7905
VECTORS vector double
0.0 0.0 0.0
0.0 0.0 0.0
0.0 0.0 0.0
0.0 0.0 0.0
0.0 0.0 0.0
0.0 0.0 0.0
0.0 0.0 0.0
0.0 0.0 0.0
0.0 0.0 0.0
0.0 0.0 0.0
0.0 0.0 0.0
0.0 0.0 0.0
0.0 0.0 0.0
0.0 0.0 0.0
0.0 0.0 0.0
0.0 0.0 0.0
0.0 0.0 0.0
0.0 0.0 0.0
0.0 0.0 0.0
0.0 0.0 0.0
0.0 0.0 0.0
0.0 0.0 0.0
0.0 0.0 0.0
0.0 0.0 0.0
0.0 0.0 0.0
0.0 0.0 0.0
0.0 0.0 0.0
0.0 0.0 0.0
0.0 0.0 0.0
0.0 0.0 0.0
0.0 0.0 0.0
0.0 0.0 0.0
0.0 0.0 0.0
0.0 0.0 0.0
0.0 0.0 0.0
0.0 0.0 0.0
0.0 0.0 0.0
0.0 0.0 0.0
0.0 0.0 0.0
0.0 0.0 0.0
0.0 0.0 0.0
0.0 0.0 0.0
0.0 0.0 0.0
0.0 0.0 0.0
0.0 0.0 0.0
0.0 0.0 0.0
0.0 0.0 0.0
0.0 0.0 0.0
0.0 0.0 0.0
0.0 0.0 0.0
0.0 0.0 0.0
0.0 0.0 0.0
0.0 0.0 0.0
0.0 0.0 0.0
0.0 0.0 0.0
0.0 0.0 0.0
0.0 0.0 0.0
0.0 0.0 0.0
0.0 0.0 0.0
0.0 0.0 0.0
0.0 0.0 0.0
0.0 0.0 0.0
0.0 0.0 0.0
0.0 0.0 0.0
0.0 0.0 0.0
0.0 0.0 0.0
0.0 0.0 0.0
0.0 0.0 0.0
0.0 0.0 0.0
0.0 0.0 0.0
0.0 0.0 0.0
0.0 0.0 0.0
0.0 0.0 0.0
0.0 0.0 0.0
0.0 0.0 0.0
0.0 0.0 0.0
0.0 0.0 0.0
0.0 0.0 0.0
0.0 0.0 0.0
0.0 0.0 0.0
0.0 0.0 0.0
0.0 0.0 0.0
0.0 0.0 0.0
0.0 0.0 0.0
0.0 0.0 0.0
0.0 0.0 0.0
0.0 0.0 0.0
0.0 0.0 0.0
0.0 0.0 0.0
0.0 0.0 0.0
0.0 0.0 0.0
0.0 0.0 0.0
0.0 0.0 0.0
0.0 0.0 0.0
0.0 0.0 0.0
0.0 0.0 0.0
0.0 0.0 0.0
0.0 0.0 0.0
0.0 0.0 0.0
0.0 0.0 0.0
0.0 0.0 0.0
0.0 0.0 0.0
0.0 0.0 0.0
0.0 0.0 0.0
0.0 0.0 0.0
0.0 0.0 0.0
0.0 0.0 0.0
0.0 0.0 0.0
0.0 0.0 0.0
0.0 0.0 0.0
0.0 0.0 0.0
0.0 0.0 0.0
0.0 0.0 0.0
0.0 0.0 0.0
0.0 0.0 0.0
0.0 0.0 0.0
0.0 0.0 0.0
0.0 0.0 0.0
0.0 0.0 0.0
0.0 0.0 0.0
0.0 0.0 0.0
0.0 0.0 0.0
0.0 0.0 0.0
0.0 0.0 0.0
0.0 0.0 0.0
0.0 0.0 0.0
0.0 0.0 0.0
0.0 0.0 0.0
0.0 0.0 0.0
0.0 0.0 0.0
0.0 0.0 0.0
0.0 0.0 0.0
0.0 0.0 0.0
0.0 0.0 0.0
0.0 0.0 0.0
0.0 0.0 0.0
0.0 0.0 0.0
0.0 0.0 0.0
0.0 0.0 0.0
0.0 0.0 0.0
0.0 0.0 0.0
0.0 0.0 0.0
0.0 0.0 0.0
0.0 0.0 0.0
0.0 0.0 0.0
0.0 0.0 0.0
0.0 0.0 0.0
0.0 0.0 0.0
0.0 0.0 0.0
0.0 0.0 0.0
0.0 0.0 0.0
0.0 0.0 0.0
0.0 0.0 0.0
0.0 0.0 0.0
0.0 0.0 0.0
0.0 0.0 0.0
0.0 0.0 0.0
0.0 0.0 0.0
0.0 0.0 0.0
0.0 0.0 0.0
0.0 0.0 0.0
0.0 0.0 0.0
1.0 0.0 0.0
1.0 0.0 0.0
1.0 0.0 0.0
1.0 0.0 0.0
1.0 0.0 0.0
1.0 0.0 0.0
1.0 0.0 0.0
1.0 0.0 0.0
1.0 0.0 0.0
1.0 0.0 0.0
1.0 0.0 0.0
1.0 0.0 0.0
1.0 0.0 0.0
1.0 0.0 0.0
1.0 0.0 0.0
1.0 0.0 0.0
1.0 0.0 0.0
1.0 0.0 0.0
1.0 0.0 0.0
1.0 0.0 0.0
1.0 0.0 0.0
1.0 0.0 0.0
1.0 0.0 0.0
1.0 0.0 0.0
1.0 0.0 0.0
1.0 0.0 0.0
1.0 0.0 0.0
1.0 0.0 0.0
1.0 0.0 0.0
1.0 0.0 0.0
1.0 0.0 0.0
1.0 0.0 0.0
1.0 0.0 0.0
1.0 0.0 0.0
1.0 0.0 0.0
1.0 0.0 0.0
1.0 0.0 0.0
1.0 0.0 0.0
1.0 0.0 0.0
1.0 0.0 0.0
1.0 0.0 0.0
1.0 0.0 0.0
1.0 0.0 0.0
1.0 0.0 0.0
1.0 0.0 0.0
1.0 0.0 0.0
1.0 0.0 0.0
1.0 0.0 0.0
1.0 0.0 0.0
1.0 0.0 0.0
1.0 0.0 0.0
1.0 0.0 0.0
1.0 0.0 0.0
1.0 0.0 0.0
1.0 0.0 0.0
1.0 0.0 0.0
1.0 0.0 0.0
1.0 0.0 0.0
1.0 0.0 0.0
1.0 0.0 0.0
1.0 0.0 0.0
1.0 0.0 0.0
1.0 0.0 0.0
1.0 0.0 0.0
1.0 0.0 0.0
1.0 0.0 0.0
1.0 0.0 0.0
1.0 0.0 0.0
1.0 0.0 0.0
1.0 0.0 0.0
1.0 0.0 0.0
1.0 0.0 0.0
1.0 0.0 0.0
1.0 0.0 0.0
1.0 0.0 0.0
1.0 0.0 0.0
1.0 0.0 0.0
1.0 0.0 0.0
1.0 0.0 0.0
0.0 0.0 0.0
0.0 0.0 0.0
0.0 0.0 0.0
0.0 0.0 0.0
0.0 0.0 0.0
0.0 0.0 0.0
0.0 0.0 0.0
0.0 0.0 0.0
0.0 0.0 0.0
0.0 0.0 0.0
0.0 0.0 0.0
0.0 0.0 0.0
0.0 0.0 0.0
0.0 0.0 0.0
0.0 0.0 0.0
0.0 0.0 0.0
0.0 0.0 0.0
0.0 0.0 0.0
0.0 0.0 0.0
0.0 0.0 0.0
0.0 0.0 0.0
0.0 0.0 0.0
0.0 0.0 0.0
0.0 0.0 0.0
0.0 0.0 0.0
0.0 0.0 0.0
0.0 0.0 0.0
0.0 0.0 0.0
0.0 0.0 0.0
0.0 0.0 0.0
0.0 0.0 0.0
0.0 0.0 0.0
0.0 0.0 0.0
0.0 0.0 0.0
0.0 0.0 0.0
0.0 0.0 0.0
0.0 0.0 0.0
0.0 0.0 0.0
0.0 0.0 0.0
0.0 0.0 0.0
0.0 0.0 0.0
0.0 0.0 0.0
0.0 0.0 0.0
0.0 0.0 0.0
0.0 0.0 0.0
0.0 0.0 0.0
0.0 0.0 0.0
0.0 0.0 0.0
0.0 0.0 0.0
0.0 0.0 0.0
0.0 0.0 0.0
0.0 0.0 0.0
0.0 0.0 0.0
0.0 0.0 0.0
0.0 0.0 0.0
0.0 0.0 0.0
0.0 0.0 0.0
0.0 0.0 0.0
0.0 0.0 0.0
0.0 0.0 0.0
0.0 0.0 0.0
0.0 0.0 0.0
0.0 0.0 0.0
0.0 0.0 0.0
0.0 0.0 0.0
0.0 0.0 0.0
0.0 0.0 0.0
0.0 0.0 0.0
0.0 0.0 0.0
0.0 0.0 0.0
0.0 0.0 0.0
0.0 0.0 0.0
0.0 0.0 0.0
0.0 0.0 0.0
0.0 0.0 0.0
0.0 0.0 0.0
0.0 0.0 0.0
0.0 0.0 0.0
0.0 0.0 0.0
-0.213372322759 0.0548158019772 0.0
-0.10366967244 -0.161043358831 0.0
-0.0525074088555 0.234122903234 0.0
-0.120410851659 -0.0809835343026 0.0
-0.100904273572 0.0696849580951 0.0
0.0874584483798 0.108769952224 0.0
-0.0767764368223 0.175520297526 0.0
-0.186645543099 -0.252566193052 0.0
-0.11941539898 -0.00218755605863 0.0
0.041784813353 -0.314189770901 0.0
-0.0546845327816 0.245318507549 0.0
-0.0230860705373 -0.023179531666 0.0
-0.0302075951968 0.025667929092 0.0
0.2829504938 -0.0100424067649 0.0
-0.0374416461609 0.220901957263 0.0
0.121084967378 0.138646962663 0.0
-0.165314722792 -0.400531018878 0.0
-0.0586047305611 -0.103536545372 0.0
-0.0445954284065 0.0950469174567 0.0
-0.0722028308722 0.0164615631315 0.0
-0.0717523726542 -0.021085954288 0.0
-0.139765699295 0.0324224251983 0.0
-0.128651242424 0.181646076787 0.0
-0.233492122694 -0.106307558859 0.0
-0.172232685681 0.0496811584159 0.0
-0.0922034095851 0.168001199223 0.0
-0.242140760994 -0.138249750446 0.0
-0.153431262688 0.117134339592 0.0
-0.189597709451 -0.0178731374328 0.0
0.390182251304 0.0615634481534 0.0
-0.0253384575737 0.120409443109 0.0
-0.0803164491685 -0.240745885307 0.0
-0.0796316757343 -0.00415549777576 0.0
0.444441863316 -0.0611775535672 0.0
-0.0270060874907 0.212396614553 0.0
-0.0131802070111 -0.0295814374964 0.0
-0.0345639321616 0.00990784502904 0.0
-0.106062096819 -0.487519155584 0.0
0.16490933421 0.116944107866 0.0
-0.0301582660163 -0.0116313050427 0.0
-0.0175450246836 0.0407710680069 0.0
0.0656576648911 0.0114965793495 0.0
-0.0649512091868 0.226278077761 0.0
-0.156549976763 -0.149699849375 0.0
-0.131000396961 0.034935743483 0.0
0.00592236923638 0.182901465219 0.0
-0.216687584967 -0.268072906313 0.0
-0.0980375837054 0.121732353994 0.0
-0.134720005309 -0.0381991744814 0.0
0.0720634110451 -0.367322008453 0.0
-0.0803690479129 0.25552205044 0.0
-0.00183986971422 -0.00206615202482 0.0
-0.00517874295933 0.00482019297372 0.0
0.537263556768 0.0156165964506 0.0
-0.0150081689266 0.138738572894 0.0
-0.0310092378185 -0.0998940923857 0.0
-0.0511556056381 0.00303425149412 0.0
-0.128801352856 -0.340151518624 0.0
-0.0121323026628 0.216049860391 0.0
-0.0702907433684 -0.0438773715988 0.0
-0.0602340645287 0.066409671 0.0
0.0833895594432 -0.13172358635 0.0
-0.0483353281277 0.253302805235 0.0
-0.0631482484803 -0.0713211437962 0.0
-0.0698937352997 0.0369790833902 0.0
-0.161866357778 0.105145017082 0.0
-0.226604524791 -0.0209405909745 0.0
-0.174378563507 0.125089499192 0.0
-0.227319880443 -0.022009325607 0.0
-0.174238903559 -0.0875300367476 0.0
-0.0816053621979 0.210436461583 0.0
-0.183544962078 -0.0791592546927 0.0
-0.136890282737 0.0834977841701 0.0
0.624499830631 -0.00754914045777 0.0
-0.0105525556724 0.141854024088 0.0
-0.0116733207538 -0.043090997511 0.0
-0.0350169947308 0.00406389694169 0.0
-0.062291964037 -0.302613776307 0.0
-0.0355232499408 -0.00580559917732 0.0
0.425787173638 0.0511294944822 0.0
-0.0124218036736 0.0584325482846 0.0
0.407481584945 -0.110547523229 0.0
-0.047080146966 0.230875037176 0.0
-0.0035626767787 -0.00674745964134 0.0
-0.0132028866911 0.0057217752679 0.0
-0.0754154249039 -0.532592157958 0.0
-0.00756293898641 -0.00490227826673 0.0
0.107769503214 0.134483990116 0.0
-0.00724197804844 0.0141892993124 0.0
-0.0532111311473 0.113126056719 0.0
-0.122024887755 0.172510545952 0.0
-0.231941174226 -0.19227004773 0.0
-0.156792961252 0.00418733010991 0.0
0.224493698707 0.0526379107978 0.0
-0.0485969393681 0.194137848287 0.0
-0.106897167902 -0.185969272887 0.0
-0.0914639488121 0.00806200162991 0.0
0.111492201342 0.131909916125 0.0
-0.0618111330453 0.135379110451 0.0
-0.184248634963 -0.325652837831 0.0
-0.0987473167359 -0.0164246882268 0.0
-0.201450171427 0.0571127880725 0.0
-0.203255674007 0.0153857068094 0.0
-0.209951043196 -0.0222267138233 0.0
-0.217261038623 0.0175532093806 0.0
-0.000255524759138 0.000288057684975 0.0
-0.000201208802891 0.000430160847612 0.0
-0.00264602231141 0.00122838604152 0.0
-0.000798172662905 0.000269600482278 0.0
0.367241151832 -0.146194473812 0.0
0.0618370792014 -0.372398949994 0.0
-0.068098433504 0.264235817732 0.0
-0.0622956341134 0.279479587171 0.0
-0.000760512401382 -0.000421197606817 0.0
-0.00140307971741 0.00199188215008 0.0
-0.0525181866629 -0.516485173675 0.0
0.113524787353 0.148843863182 0.0
-0.185922448932 0.0175883028601 0.0
-0.1886075686 0.0539217455072 0.0
-0.0759391601009 0.145449967138 0.0
-0.0211054869304 0.15048563865 0.0
-0.0535814536065 0.176913614516 0.0
-0.243948273358 -0.17177161049 0.0
-0.235751004709 -0.22607877227 0.0
-0.23483363872 -0.18910576749 0.0
-0.138119915646 0.145291774258 0.0
-0.113405244857 0.151977663585 0.0
-0.127930537953 0.126696776202 0.0
-0.171567378752 -0.00651549973494 0.0
-0.150815651179 -0.0168406467795 0.0
-0.165146093063 -0.034305781556 0.0
-0.153715982727 0.154644857869 0.0
-0.1760930027 0.119884712758 0.0
-0.147614199755 0.14982302747 0.0
-0.122503543038 0.143806837397 0.0
-0.116960793165 0.175303553486 0.0
-0.24395629635 -0.0699802946029 0.0
-0.236832701474 -0.0225904678299 0.0
-0.23262734277 -0.0627789153497 0.0
-0.246238309605 -0.120462867285 0.0
-0.238446235175 -0.085275716032 0.0
0.0134486149964 0.113967797712 0.0
0.0357878307175 0.143770465405 0.0
-0.0989327951408 0.178905360133 0.0
-0.0904533905396 0.153553943642 0.0
-0.215090755651 -0.224898109563 0.0
-0.218566708003 -0.271634820855 0.0
-0.139887037541 0.000699041902961 0.0
-0.129345238806 -0.0159788259264 0.0
-0.0547410312744 0.232587564832 0.0
-0.0569179157208 0.245213773971 0.0
-0.0448947213075 0.243560610658 0.0
0.143178364696 -0.00339384191853 0.0
0.059479201984 -0.0609760330853 0.0
0.18630040287 -0.0557724657725 0.0
-0.0949344274718 0.0252688929433 0.0
-0.0947663591263 0.0391218409815 0.0
-0.0736016639473 0.0261076851607 0.0
-0.100652795946 -0.132769191789 0.0
-0.101153831092 -0.107778569437 0.0
-0.062820231929 -0.0887868098024 0.0
-0.0510481057525 0.246036267811 0.0
-0.0662378338335 0.237529865973 0.0
-0.024775419577 -0.147095258417 0.0
-0.046176431052 -0.0781706866168 0.0
-0.0874792927322 0.05330970915 0.0
-0.111947296404 0.0553044313524 0.0
-0.0947217389135 -0.0820463332372 0.0
-0.134479201834 -0.106760241553 0.0
-0.171695422926 -0.400855426323 0.0
-0.181438130191 -0.312642667889 0.0
-0.198706191146 -0.353996968581 0.0
0.042172646914 0.17868330905 0.0
-0.00154005806684 0.202906720228 0.0
0.0482592154005 0.170648996752 0.0
-0.0727157313895 -0.0319043390272 0.0
-0.100122569236 -0.0465003593479 0.0
-0.0968844080698 -0.0313463546874 0.0
-0.0534247208214 0.0819319228336 0.0
-0.0780930603337 0.091510418426 0.0
-0.0683550426686 0.108473621222 0.0
-0.178995770691 0.0925451831225 0.0
-0.167383062786 0.0839889637337 0.0
0.651435338254 0.0186725142289 0.0
0.677364469608 0.0148857002039 0.0
-0.0064058556773 0.0603009039481 0.0
-0.00653174248621 0.0746161686003 0.0
-0.0230498700625 -0.147049325825 0.0
-0.0191153927906 -0.108887620917 0.0
-0.0345612067711 -0.00163621808102 0.0
-0.0379442872904 -0.000511465710737 0.0
-0.0209383787535 -0.168278810105 0.0
-0.0711724951663 -0.277752412715 0.0
-0.0249457881099 -0.00188904943732 0.0
-0.0487339641341 -0.00606720451313 0.0
0.66644777523 0.0171275364294 0.0
0.398762569895 0.0565788286005 0.0
-0.00452262838628 0.0412635348412 0.0
-0.0176976557265 0.0822053567096 0.0
-0.233083972865 -0.151367005487 0.0
-0.166597480237 0.0224450025051 0.0
-0.172471621431 -0.219943125292 0.0
-0.116545568462 -0.241157143037 0.0
-0.0361492006785 0.215835302659 0.0
-0.0342293368707 0.230350100939 0.0
-0.12709230693 -0.0626067649321 0.0
-0.0957378407746 -0.0627604184358 0.0
-0.101017973811 0.0907663938203 0.0
-0.0822294531419 0.0708303577829 0.0
-0.0856213971697 0.191478592153 0.0
-0.103693242509 0.200897212518 0.0
-0.144675104329 0.10069500339 0.0
-0.153970969803 0.0708533423409 0.0
-0.18983060126 0.0940485993122 0.0
-0.164644741562 0.124927787284 0.0
-0.197642396681 0.0763433029575 0.0
-0.196389477978 0.0907771498191 0.0
-0.225823784107 0.0183673286625 0.0
-0.221599679127 0.0251566789568 0.0
-0.129841103184 -0.341014074482 0.0
-0.114867420616 -0.381470863596 0.0
-0.0696535392023 -0.0119613480834 0.0
-0.0523292581931 -0.0120561382469 0.0
0.224366934309 0.0995927113428 0.0
0.244968968934 0.094397869444 0.0
-0.0356873587615 0.107526288219 0.0
-0.0257901692012 0.0789718628405 0.0
0.722988876855 -0.0154340197053 0.0
0.679175731051 -0.0263027147351 0.0
-0.00715494476905 0.119175733416 0.0
-0.0115173412976 0.138954126184 0.0
-0.00229575652424 -0.011942407541 0.0
-0.00188114214232 -0.00658098301314 0.0
-0.0187455230214 0.00229542491729 0.0
-0.0144364961703 0.00248197308282 0.0
-0.0420589477584 -0.373428434695 0.0
-0.0360031711931 -0.302747949381 0.0
-0.0108839857597 -0.00276923547626 0.0
-0.0166250193987 -0.00293147807582 0.0
0.453575507428 0.043724160911 0.0
0.530339886186 0.0326008195447 0.0
-0.0039587693862 0.0168008151144 0.0
-0.004504594652 0.0246614503031 0.0
0.468414023833 0.0333383428937 0.0
0.733193428068 0.00722999377346 0.0
-0.0193274717649 0.131441071647 0.0
-0.00481243091607 0.0786945488406 0.0
-0.0486346280858 -0.152546407489 0.0
-0.0119634323251 -0.0674405383106 0.0
-0.0588056345723 0.000735248956528 0.0
-0.0328664761729 0.000573098415478 0.0
-0.141795735117 -0.449479475028 0.0
-0.134499504639 -0.44304640452 0.0
0.127180158096 0.134693580299 0.0
0.0281357139535 0.183553683644 0.0
-0.050426585877 -0.0185648537945 0.0
-0.0478919078951 -0.026528163535 0.0
-0.0314658590957 0.067812873256 0.0
-0.038096495379 0.0566031604351 0.0
0.154300342829 0.0779656420201 0.0
0.279523053267 0.0631424646856 0.0
0.185172233242 0.0942117373959 0.0
-0.0615023742116 0.188469649469 0.0
-0.0395902546783 0.164637622346 0.0
-0.0529968071701 0.159237316954 0.0
-0.144826486767 -0.222089308654 0.0
-0.0994865788689 -0.211699774935 0.0
-0.144059558761 -0.265721512513 0.0
-0.105484551122 0.00498988923218 0.0
-0.0825521018559 0.00106484947151 0.0
-0.0952880555139 -0.00429538299211 0.0
-0.1531910861 -0.0182375331522 0.0
-0.0972264154799 -0.0397429075481 0.0
-0.0833728588131 0.0245861682726 0.0
-0.0853985127818 0.221735642615 0.0
-0.105128295206 0.206539383573 0.0
-0.209816135473 -0.0948273109575 0.0
-0.175921781613 -0.112775843857 0.0
-0.205730256778 -0.135762439052 0.0
-0.135074315952 0.0601554882934 0.0
-0.151363799291 0.0436446406908 0.0
0.230295449172 -0.154675782425 0.0
0.226596910122 -0.104704215298 0.0
0.0774716684959 -0.210681094417 0.0
-0.0498909161776 0.252267008763 0.0
-0.04251853251 0.248500751203 0.0
-0.0495610673626 0.253996518867 0.0
-0.0197099996352 -0.0295438511022 0.0
-0.035109796675 -0.0529463115696 0.0
-0.0391690225795 -0.0438464362169 0.0
-0.035013666836 0.0182550977754 0.0
-0.0521850415446 0.0224887892322 0.0
-0.0488859257648 0.0325363157609 0.0
-0.137674578636 -0.12466642732 0.0
-0.0649714485985 0.223879558701 0.0
-0.151128652707 -0.0852597038174 0.0
-0.119578746317 0.0775717957911 0.0
-0.187416952964 0.00958798254918 0.0
-0.207135926753 -0.0524507552625 0.0
-0.221038255159 -0.120823647205 0.0
-0.211896780732 -0.0576219028283 0.0
-0.187472046585 -0.0489167266595 0.0
0.771275573116 0.00197857352219 0.0
-0.0035690124324 0.0804425522267 0.0
-0.0075614091055 -0.0413611454865 0.0
-0.0268182123472 0.00108016891572 0.0
0.104670567705 0.125507093422 0.0
0.0603400153128 0.153435895766 0.0
-0.187069533189 -0.296507482258 0.0
-0.207549097432 -0.318920082178 0.0
-0.0684474685742 0.151358316387 0.0
-0.075657295918 0.132711087938 0.0
-0.108278574806 -0.0120100527711 0.0
-0.110926795305 -0.0233591773113 0.0
0.42400869924 -0.090771351605 0.0
0.648982544056 -0.0355707621412 0.0
-0.0369092690426 0.222404444956 0.0
-0.0171908404647 0.153466352543 0.0
-0.00700114779806 -0.014447456647 0.0
-0.00105997269702 -0.0024472983008 0.0
-0.0215882253864 0.00802835198639 0.0
-0.00870013471107 0.00195870376961 0.0
-0.0412785976224 -0.411832282255 0.0
-0.0901254531 -0.521075958186 0.0
-0.00512094610851 -0.00181583814925 0.0
-0.0153047052812 -0.00814396514754 0.0
0.416257932446 0.0506424052319 0.0
0.124759378958 0.128144381381 0.0
-0.00258657332172 0.00929321822609 0.0
-0.0115672067194 0.0241744209575 0.0
-0.0312838223865 0.223123849412 0.0
0.347976301677 -0.0429005092738 0.0
-0.0538048879325 0.0149357444185 0.0
-0.0323566408773 -0.0630658809786 0.0
-0.0587022227726 -0.3441737946 0.0
-0.092337048229 -0.463773951308 0.0
-0.0319531626025 0.229492649852 0.0
0.0026517260699 0.192751057781 0.0
-0.044026314634 -0.0353508396029 0.0
-0.0281184811299 -0.0192199250633 0.0
-0.0443481322979 0.0444726245804 0.0
-0.0260415730382 0.0361541873478 0.0
-0.000589471843897 -0.000545089241806 0.0
0.561163910987 -0.0613390732563 0.0
-0.00505839289634 0.00162307744141 0.0
-0.032567706635 0.193924008493 0.0
-0.0486390256793 -0.473426249182 0.0
-0.00212365962942 -0.00112556421374 0.0
0.308441689561 0.0767064611881 0.0
-0.00188650435186 0.00478249187595 0.0
0.350616797386 0.0359239257192 0.0
-0.0316343966107 0.175123118791 0.0
-0.0681118739639 -0.153728114253 0.0
-0.0730987518117 0.00542811179869 0.0
-0.00321930357533 -0.00465410544874 0.0
-0.00990358549605 0.00617142188662 0.0
0.257499195415 -0.20018720627 0.0
-0.073433237376 0.259909285395 0.0
-0.0441925918771 -0.501968215158 0.0
-0.00485752105509 -0.00426647126505 0.0
-0.0066523714441 0.191519284645 0.0
-0.00710382715908 0.00985049937668 0.0
-0.0334334623721 -0.236726655611 0.0
-0.0413654911885 0.244114064323 0.0
-0.0656846125332 -0.0565099058014 0.0
-0.0651159444376 0.050444684724 0.0
-0.023919562238 0.0711100461753 0.0
-0.0971233368175 0.072418407848 0.0
-0.102475331446 0.199514090592 0.0
-0.127725497302 0.181993237967 0.0
-0.206672824981 -0.178719443167 0.0
-0.145540057133 0.0211605685597 0.0
0.180225472238 0.10781555051 0.0
-0.0486114249942 0.134427446521 0.0
0.11747444598 0.136019409843 0.0
-0.0553286968692 0.119391169787 0.0
-0.150707856619 -0.312213039252 0.0
-0.0870547312829 -0.0108886873249 0.0
-0.17840505903 -0.355360944014 0.0
-0.0887465054812 -0.0194096848055 0.0
0.778189731634 -0.00614218021479 0.0
0.548537747448 -0.0233857483367 0.0
-0.00406484394596 0.0932689272937 0.0
-0.0161129336667 0.173814044898 0.0
0.310778999909 0.0748715218647 0.0
0.450263739109 -0.010448727425 0.0
-0.0220620366119 0.189275550271 0.0
-0.0852750899861 -0.39410812978 0.0
-0.0147849622939 0.0512452399199 0.0
-0.0336767241296 -0.00847824165665 0.0
0.632386547222 0.0203821321197 0.0
-0.0243866933456 -0.214715727102 0.0
-0.00395917359192 0.0305272427373 0.0
-0.0194483025748 -0.00221656001988 0.0
-0.00238374618434 -0.0170030713475 0.0
-0.0125604850629 -0.0380748559134 0.0
-0.0192811733292 0.00153048949087 0.0
-0.0361474983798 0.00652346361086 0.0
-0.0289501721546 -0.0713792959372 0.0
-0.0521244930314 0.00901765576243 0.0
0.0599454846555 0.0753350560198 0.0
-0.0816385945336 0.201740412754 0.0
-0.17757971598 -0.203160972516 0.0
-0.125928551199 0.0133558482405 0.0
-0.115071116177 0.109877355234 0.0
-0.15500519677 0.0658811580543 0.0
-0.148235589166 0.153838834613 0.0
0.221666769662 -0.197887391801 0.0
-0.0627241750418 0.255403418275 0.0
-0.0548341378331 -0.471770830731 0.0
-0.0101036150229 -0.0147724833665 0.0
-0.0190991980854 0.200835588656 0.0
-0.0212685229159 0.0129667131978 0.0
-0.0141523019095 -0.0115033374361 0.0
-0.0161662410472 0.0212972825408 0.0
0.244968309827 0.0251150819693 0.0
0.131315812365 0.0445669672791 0.0
-0.0442244844676 0.209625743748 0.0
-0.063187034425 0.214108867049 0.0
-0.132083994536 -0.177100505377 0.0
-0.085643614159 -0.146442661414 0.0
-0.0853252060607 0.0135209695658 0.0
-0.107034896647 0.0170081095789 0.0
-0.0548763243551 0.20320182935 0.0
-0.202205285563 -0.173566885008 0.0
-0.121985193943 0.102728079229 0.0
-0.157841923312 -0.0591014620875 0.0
0.0648351687885 -0.345805031468 0.0
-0.07115452392 0.246724929419 0.0
-0.00854227681293 -0.00959260120278 0.0
-0.0147373057751 0.0134681881319 0.0
-0.197129908962 0.0456182311525 0.0
0.58460181593 0.00222570484977 0.0
0.794029687754 -0.00176117676988 0.0
-0.0122760424188 0.143016982837 0.0
-0.00307572922762 0.081457398773 0.0
0.396441045266 0.0119383435808 0.0
-0.0266680913797 0.185819453186 0.0
-0.0197226366805 -0.0660143465027 0.0
-0.0042217493693 -0.0255737482572 0.0
-0.0432551650959 0.00402911972574 0.0
-0.0214091230408 0.00121235090118 0.0