# vtk DataFile Version 2.0
2D Simulation Python
ASCII
DATASET UNSTRUCTURED_GRID
FIELD FieldData 1
NODES 1 2 int
7905 15488

POINTS 7905 double
0.0 0.0 0.0
1.0 0.0 0.0
1.0 1.0 0.0
0.0 1.0 0.0
0.01249999999997639 0.0 0.0
0.02499999999995297 0.0 0.0
0.03749999999992721 0.0 0.0
0.04999999999989927 0.0 0.0
0.0624999999998716 0.0 0.0
0.07499999999985263 0.0 0.0
0.08749999999983366 0.0 0.0
0.09999999999981467 0.0 0.0
0.1124999999997956 0.0 0.0
0.1249999999997765 0.0 0.0
0.1374999999997401 0.0 0.0
0.1499999999997036 0.0 0.0
0.1624999999996672 0.0 0.0
0.1749999999996308 0.0 0.0
0.1874999999995943 0.0 0.0
0.1999999999995579 0.0 0.0
0.2124999999995214 0.0 0.0
0.224999999999485 0.0 0.0
0.2374999999994485 0.0 0.0
0.2499999999994121 0.0 0.0
0.2624999999993757 0.0 0.0
0.2749999999993393 0.0 0.0
0.2874999999993028 0.0 0.0
0.2999999999992664 0.0 0.0
0.3124999999992299 0.0 0.0
0.3249999999991935 0.0 0.0
0.3374999999991571 0.0 0.0
0.3499999999991207 0.0 0.0
0.3624999999990842 0.0 0.0
0.3749999999990478 0.0 0.0
0.3874999999990113 0.0 0.0
0.3999999999989749 0.0 0.0
0.4124999999989398 0.0 0.0
0.4249999999989048 0.0 0.0
0.4374999999988697 0.0 0.0
0.4499999999988346 0.0 0.0
0.4624999999987995 0.0 0.0
0.4749999999987644 0.0 0.0
0.4874999999987293 0.0 0.0
0.4999999999986943 0.0 0.0
0.5124999999987259 0.0 0.0
0.5249999999987575 0.0 0.0
0.5374999999987891 0.0 0.0
0.5499999999988205 0.0 0.0
0.5624999999988521 0.0 0.0
0.5749999999988837 0.0 0.0
0.5874999999989152 0.0 0.0
0.5999999999989468 0.0 0.0
0.6124999999989797 0.0 0.0
0.6249999999990127 0.0 0.0
0.6374999999990456 0.0 0.0
0.6499999999990784 0.0 0.0
0.6624999999991114 0.0 0.0
0.6749999999991443 0.0 0.0
0.6874999999991771 0.0 0.0
0.69999999999921 0.0 0.0
0.712499999999243 0.0 0.0
0.7249999999992759 0.0 0.0
0.7374999999993088 0.0 0.0
0.7499999999993416 0.0 0.0
0.7624999999993746 0.0 0.0
0.7749999999994075 0.0 0.0
0.7874999999994404 0.0 0.0
0.7999999999994734 0.0 0.0
0.8124999999995063 0.0 0.0
0.8249999999995392 0.0 0.0
0.8374999999995721 0.0 0.0
0.8499999999996051 0.0 0.0
0.862499999999638 0.0 0.0
0.8749999999996709 0.0 0.0
0.8874999999997039 0.0 0.0
0.8999999999997368 0.0 0.0
0.9124999999997697 0.0 0.0
0.9249999999998026 0.0 0.0
0.9374999999998355 0.0 0.0
0.9499999999998684 0.0 0.0
0.9624999999999013 0.0 0.0
0.9749999999999343 0.0 0.0
0.9874999999999672 0.0 0.0
1.0 0.01249999999997639 0.0
1.0 0.02499999999995297 0.0
1.0 0.03749999999992721 0.0
1.0 0.04999999999989927 0.0
1.0 0.0624999999998716 0.0
1.0 0.07499999999985263 0.0
1.0 0.08749999999983366 0.0
1.0 0.09999999999981467 0.0
1.0 0.1124999999997956 0.0
1.0 0.1249999999997765 0.0
1.0 0.1374999999997401 0.0
1.0 0.1499999999997036 0.0
1.0 0.1624999999996672 0.0
1.0 0.1749999999996308 0.0
1.0 0.1874999999995943 0.0
1.0 0.1999999999995579 0.0
1.0 0.2124999999995214 0.0
1.0 0.224999999999485 0.0
1.0 0.2374999999994485 0.0
1.0 0.2499999999994121 0.0
1.0 0.2624999999993757 0.0
1.0 0.2749999999993393 0.0
1.0 0.2874999999993028 0.0
1.0 0.2999999999992664 0.0
1.0 0.3124999999992299 0.0
1.0 0.3249999999991935 0.0
1.0 0.3374999999991571 0.0
1.0 0.3499999999991207 0.0
1.0 0.3624999999990842 0.0
1.0 0.3749999999990478 0.0
1.0 0.3874999999990113 0.0
1.0 0.3999999999989749 0.0
1.0 0.4124999999989398 0.0
1.0 0.4249999999989048 0.0
1.0 0.4374999999988697 0.0
1.0 0.4499999999988346 0.0
1.0 0.4624999999987995 0.0
1.0 0.4749999999987644 0.0
1.0 0.4874999999987293 0.0
1.0 0.4999999999986943 0.0
1.0 0.5124999999987259 0.0
1.0 0.5249999999987575 0.0
1.0 0.5374999999987891 0.0
1.0 0.5499999999988205 0.0
1.0 0.5624999999988521 0.0
1.0 0.5749999999988837 0.0
1.0 0.5874999999989152 0.0
1.0 0.5999999999989468 0.0
1.0 0.6124999999989797 0.0
1.0 0.6249999999990127 0.0
1.0 0.6374999999990456 0.0
1.0 0.6499999999990784 0.0
1.0 0.6624999999991114 0.0
1.0 0.6749999999991443 0.0
1.0 0.6874999999991771 0.0
1.0 0.69999999999921 0.0
1.0 0.712499999999243 0.0
1.0 0.7249999999992759 0.0
1.0 0.7374999999993088 0.0
1.0 0.7499999999993416 0.0
1.0 0.7624999999993746 0.0
1.0 0.7749999999994075 0.0
1.0 0.7874999999994404 0.0
1.0 0.7999999999994734 0.0
1.0 0.8124999999995063 0.0
1.0 0.8249999999995392 0.0
1.0 0.8374999999995721 0.0
1.0 0.8499999999996051 0.0
1.0 0.862499999999638 0.0
1.0 0.8749999999996709 0.0
1.0 0.8874999999997039 0.0
1.0 0.8999999999997368 0.0
1.0 0.9124999999997697 0.0
1.0 0.9249999999998026 0.0
1.0 0.9374999999998355 0.0
1.0 0.9499999999998684 0.0
1.0 0.9624999999999013 0.0
1.0 0.9749999999999343 0.0
1.0 0.9874999999999672 0.0
0.9874999999999439 1.0 0.0
0.9749999999998877 1.0 0.0
0.9624999999998541 1.0 0.0
0.9499999999998356 1.0 0.0
0.9374999999997805 1.0 0.0
0.9249999999996992 1.0 0.0
0.9124999999996414 1.0 0.0
0.8999999999995836 1.0 0.0
0.8874999999996454 1.0 0.0
0.8749999999997078 1.0 0.0
0.8624999999997771 1.0 0.0
0.8499999999998515 1.0 0.0
0.837499999999895 1.0 0.0
0.8249999999999216 1.0 0.0
0.8124999999999571 1.0 0.0
0.7999999999999998 1.0 0.0
0.7875000000000937 1.0 0.0
0.77500000000021 1.0 0.0
0.7625000000002968 1.0 0.0
0.7500000000003858 1.0 0.0
0.7375000000004739 1.0 0.0
0.7250000000005448 1.0 0.0
0.7125000000005861 1.0 0.0
0.7000000000006934 1.0 0.0
0.6875000000008109 1.0 0.0
0.6750000000009306 1.0 0.0
0.6625000000010091 1.0 0.0
0.6500000000010593 1.0 0.0
0.6375000000011386 1.0 0.0
0.6250000000012101 1.0 0.0
0.612500000001312 1.0 0.0
0.6000000000013869 1.0 0.0
0.5875000000014601 1.0 0.0
0.5750000000015277 1.0 0.0
0.5625000000016089 1.0 0.0
0.5500000000016854 1.0 0.0
0.5375000000017889 1.0 0.0
0.5250000000018821 1.0 0.0
0.5125000000019756 1.0 0.0
0.5000000000020587 1.0 0.0
0.4875000000020093 1.0 0.0
0.4750000000019601 1.0 0.0
0.4625000000019108 1.0 0.0
0.4500000000018616 1.0 0.0
0.4375000000018123 1.0 0.0
0.425000000001763 1.0 0.0
0.4125000000017136 1.0 0.0
0.4000000000016644 1.0 0.0
0.3875000000016123 1.0 0.0
0.3750000000015603 1.0 0.0
0.3625000000015083 1.0 0.0
0.3500000000014563 1.0 0.0
0.3375000000014042 1.0 0.0
0.3250000000013522 1.0 0.0
0.3125000000013003 1.0 0.0
0.3000000000012483 1.0 0.0
0.2875000000011962 1.0 0.0
0.2750000000011442 1.0 0.0
0.2625000000010922 1.0 0.0
0.2500000000010403 1.0 0.0
0.2375000000009883 1.0 0.0
0.2250000000009362 1.0 0.0
0.2125000000008842 1.0 0.0
0.2000000000008322 1.0 0.0
0.1875000000007802 1.0 0.0
0.1750000000007281 1.0 0.0
0.1625000000006761 1.0 0.0
0.1500000000006241 1.0 0.0
0.1375000000005721 1.0 0.0
0.12500000000052 1.0 0.0
0.112500000000468 1.0 0.0
0.100000000000416 1.0 0.0
0.08750000000036395 1.0 0.0
0.07500000000031193 1.0 0.0
0.06250000000026001 1.0 0.0
0.05000000000020799 1.0 0.0
0.03750000000015596 1.0 0.0
0.02500000000010394 1.0 0.0
0.01250000000005191 1.0 0.0
0.0 0.9874999999999439 0.0
0.0 0.9749999999998877 0.0
0.0 0.9624999999998541 0.0
0.0 0.9499999999998356 0.0
0.0 0.9374999999997805 0.0
0.0 0.9249999999996992 0.0
0.0 0.9124999999996414 0.0
0.0 0.8999999999995836 0.0
0.0 0.8874999999996454 0.0
0.0 0.8749999999997078 0.0
0.0 0.8624999999997771 0.0
0.0 0.8499999999998515 0.0
0.0 0.837499999999895 0.0
0.0 0.8249999999999216 0.0
0.0 0.8124999999999571 0.0
0.0 0.7999999999999998 0.0
0.0 0.7875000000000937 0.0
0.0 0.77500000000021 0.0
0.0 0.7625000000002968 0.0
0.0 0.7500000000003858 0.0
0.0 0.7375000000004739 0.0
0.0 0.7250000000005448 0.0
0.0 0.7125000000005861 0.0
0.0 0.7000000000006934 0.0
0.0 0.6875000000008109 0.0
0.0 0.6750000000009306 0.0
0.0 0.6625000000010091 0.0
0.0 0.6500000000010593 0.0
0.0 0.6375000000011386 0.0
0.0 0.6250000000012101 0.0
0.0 0.612500000001312 0.0
0.0 0.6000000000013869 0.0
0.0 0.5875000000014601 0.0
0.0 0.5750000000015277 0.0
0.0 0.5625000000016089 0.0
0.0 0.5500000000016854 0.0
0.0 0.5375000000017889 0.0
0.0 0.5250000000018821 0.0
0.0 0.5125000000019756 0.0
0.0 0.5000000000020587 0.0
0.0 0.4875000000020093 0.0
0.0 0.4750000000019601 0.0
0.0 0.4625000000019108 0.0
0.0 0.4500000000018616 0.0
0.0 0.4375000000018123 0.0
0.0 0.425000000001763 0.0
0.0 0.4125000000017136 0.0
0.0 0.4000000000016644 0.0
0.0 0.3875000000016123 0.0
0.0 0.3750000000015603 0.0
0.0 0.3625000000015083 0.0
0.0 0.3500000000014563 0.0
0.0 0.3375000000014042 0.0
0.0 0.3250000000013522 0.0
0.0 0.3125000000013003 0.0
0.0 0.3000000000012483 0.0
0.0 0.2875000000011962 0.0
0.0 0.2750000000011442 0.0
0.0 0.2625000000010922 0.0
0.0 0.2500000000010403 0.0
0.0 0.2375000000009883 0.0
0.0 0.2250000000009362 0.0
0.0 0.2125000000008842 0.0
0.0 0.2000000000008322 0.0
0.0 0.1875000000007802 0.0
0.0 0.1750000000007281 0.0
0.0 0.1625000000006761 0.0
0.0 0.1500000000006241 0.0
0.0 0.1375000000005721 0.0
0.0 0.12500000000052 0.0
0.0 0.112500000000468 0.0
0.0 0.100000000000416 0.0
0.0 0.08750000000036395 0.0
0.0 0.07500000000031193 0.0
0.0 0.06250000000026001 0.0
0.0 0.05000000000020799 0.0
0.0 0.03750000000015596 0.0
0.0 0.02500000000010394 0.0
0.0 0.01250000000005191 0.0
0.499547313951317 0.4984202829398231 0.0
0.7057142553715264 0.7049957919913439 0.0
0.2942617789825218 0.706558362574613 0.0
0.7052750732513358 0.29408370064617073 0.0
0.2941161372558304 0.29425664999463297 0.0
0.49473409022248005 0.7865288457870021 0.0
0.21400675843102512 0.49559804899934157 0.0
0.7879606576561358 0.5053778129282838 0.0
0.505369301426186 0.2119891966328729 0.0
0.8286074034533916 0.8287576993256224 0.0
0.17122528584787128 0.8286011816233976 0.0
0.8287577004551061 0.17139259539200086 0.0
0.17140751986106711 0.17123186221929698 0.0
0.6412438345717256 0.8516520873564006 0.0
0.14868333985619164 0.6419476520576217 0.0
0.36001439100831745 0.8471882363166383 0.0
0.8472916681795735 0.639858398754968 0.0
0.8516551147624887 0.3587551765143301 0.0
0.1529024464427883 0.36006180552290556 0.0
0.3587547979315107 0.148343271772372 0.0
0.6398585806283599 0.15270777331315408 0.0
0.5665851234669081 0.6415505082226679 0.0
0.3688065763014604 0.5781443560211958 0.0
0.6448511073779454 0.4469929790001165 0.0
0.43335085497228876 0.35323599965884955 0.0
0.42653529248703315 0.6555720715037009 0.0
0.6657620768186652 0.5502649260729648 0.0
0.3566111211511165 0.42874186251021185 0.0
0.5447859278293945 0.34262223816401394 0.0
0.4594948214297615 0.8920313032464312 0.0
[...]
POINT_DATA 7905
VECTORS vector double
0.0 0.0 0.0
0.0 0.0 0.0
0.0 0.0 0.0
0.0 0.0 0.0
0.0 0.0 0.0
0.0 0.0 0.0
0.0 0.0 0.0
0.0 0.0 0.0
0.0 0.0 0.0
0.0 0.0 0.0
0.0 0.0 0.0
0.0 0.0 0.0
0.0 0.0 0.0
0.0 0.0 0.0
0.0 0.0 0.0
0.0 0.0 0.0
0.0 0.0 0.0
0.0 0.0 0.0
0.0 0.0 0.0
0.0 0.0 0.0
0.0 0.0 0.0
0.0 0.0 0.0
0.0 0.0 0.0
0.0 0.0 0.0
0.0 0.0 0.0
0.0 0.0 0.0
0.0 0.0 0.0
0.0 0.0 0.0
0.0 0.0 0.0
0.0 0.0 0.0
0.0 0.0 0.0
0.0 0.0 0.0
0.0 0.0 0.0
0.0 0.0 0.0
0.0 0.0 0.0
0.0 0.0 0.0
0.0 0.0 0.0
0.0 0.0 0.0
0.0 0.0 0.0
0.0 0.0 0.0
0.0 0.0 0.0
0.0 0.0 0.0
0.0 0.0 0.0
0.0 0.0 0.0
0.0 0.0 0.0
0.0 0.0 0.0
0.0 0.0 0.0
0.0 0.0 0.0
0.0 0.0 0.0
0.0 0.0 0.0
0.0 0.0 0.0
0.0 0.0 0.0
0.0 0.0 0.0
0.0 0.0 0.0
0.0 0.0 0.0
0.0 0.0 0.0
0.0 0.0 0.0
0.0 0.0 0.0
0.0 0.0 0.0
0.0 0.0 0.0
0.0 0.0 0.0
0.0 0.0 0.0
0.0 0.0 0.0
0.0 0.0 0.0
0.0 0.0 0.0
0.0 0.0 0.0
0.0 0.0 0.0
0.0 0.0 0.0
0.0 0.0 0.0
0.0 0.0 0.0
0.0 0.0 0.0
0.0 0.0 0.0
0.0 0.0 0.0
0.0 0.0 0.0
0.0 0.0 0.0
0.0 0.0 0.0
0.0 0.0 0.0
0.0 0.0 0.0
0.0 0.0 0.0
0.0 0.0 0.0
0.0 0.0 0.0
0.0 0.0 0.0
0.0 0.0 0.0
0.0 0.0 0.0
0.0 0.0 0.0
0.0 0.0 0.0
0.0 0.0 0.0
0.0 0.0 0.0
0.0 0.0 0.0
0.0 0.0 0.0
0.0 0.0 0.0
0.0 0.0 0.0
0.0 0.0 0.0
0.0 0.0 0.0
0.0 0.0 0.0
0.0 0.0 0.0
0.0 0.0 0.0
0.0 0.0 0.0
0.0 0.0 0.0
0.0 0.0 0.0
0.0 0.0 0.0
0.0 0.0 0.0
0.0 0.0 0.0
0.0 0.0 0.0
0.0 0.0 0.0
0.0 0.0 0.0
0.0 0.0 0.0
0.0 0.0 0.0
0.0 0.0 0.0
0.0 0.0 0.0
0.0 0.0 0.0
0.0 0.0 0.0
0.0 0.0 0.0
0.0 0.0 0.0
0.0 0.0 0.0
0.0 0.0 0.0
0.0 0.0 0.0
0.0 0.0 0.0
0.0 0.0 0.0
0.0 0.0 0.0
0.0 0.0 0.0
0.0 0.0 0.0
0.0 0.0 0.0
0.0 0.0 0.0
0.0 0.0 0.0
0.0 0.0 0.0
0.0 0.0 0.0
0.0 0.0 0.0
0.0 0.0 0.0
0.0 0.0 0.0
0.0 0.0 0.0
0.0 0.0 0.0
0.0 0.0 0.0
0.0 0.0 0.0
0.0 0.0 0.0
0.0 0.0 0.0
0.0 0.0 0.0
0.0 0.0 0.0
0.0 0.0 0.0
0.0 0.0 0.0
0.0 0.0 0.0
0.0 0.0 0.0
0.0 0.0 0.0
0.0 0.0 0.0
0.0 0.0 0.0
0.0 0.0 0.0
0.0 0.0 0.0
0.0 0.0 0.0
0.0 0.0 0.0
0.0 0.0 0.0
0.0 0.0 0.0
0.0 0.0 0.0
0.0 0.0 0.0
0.0 0.0 0.0
0.0 0.0 0.0
0.0 0.0 0.0
0.0 0.0 0.0
0.0 0.0 0.0
0.0 0.0 0.0
0.0 0.0 0.0
0.0 0.0 0.0
0.0 0.0 0.0
1.0 0.0 0.0
1.0 0.0 0.0
1.0 0.0 0.0
1.0 0.0 0.0
1.0 0.0 0.0
1.0 0.0 0.0
1.0 0.0 0.0
1.0 0.0 0.0
1.0 0.0 0.0
1.0 0.0 0.0
1.0 0.0 0.0
1.0 0.0 0.0
1.0 0.0 0.0
1.0 0.0 0.0
1.0 0.0 0.0
1.0 0.0 0.0
1.0 0.0 0.0
1.0 0.0 0.0
1.0 0.0 0.0
1.0 0.0 0.0
1.0 0.0 0.0
1.0 0.0 0.0
1.0 0.0 0.0
1.0 0.0 0.0
1.0 0.0 0.0
1.0 0.0 0.0
1.0 0.0 0.0
1.0 0.0 0.0
1.0 0.0 0.0
1.0 0.0 0.0
1.0 0.0 0.0
1.0 0.0 0.0
1.0 0.0 0.0
1.0 0.0 0.0
1.0 0.0 0.0
1.0 0.0 0.0
1.0 0.0 0.0
1.0 0.0 0.0
1.0 0.0 0.0
1.0 0.0 0.0
1.0 0.0 0.0
1.0 0.0 0.0
1.0 0.0 0.0
1.0 0.0 0.0
1.0 0.0 0.0
1.0 0.0 0.0
1.0 0.0 0.0
1.0 0.0 0.0
1.0 0.0 0.0
1.0 0.0 0.0
1.0 0.0 0.0
1.0 0.0 0.0
1.0 0.0 0.0
1.0 0.0 0.0
1.0 0.0 0.0
1.0 0.0 0.0
1.0 0.0 0.0
1.0 0.0 0.0
1.0 0.0 0.0
1.0 0.0 0.0
1.0 0.0 0.0
1.0 0.0 0.0
1.0 0.0 0.0
1.0 0.0 0.0
1.0 0.0 0.0
1.0 0.0 0.0
1.0 0.0 0.0
1.0 0.0 0.0
1.0 0.0 0.0
1.0 0.0 0.0
1.0 0.0 0.0
1.0 0.0 0.0
1.0 0.0 0.0
1.0 0.0 0.0
1.0 0.0 0.0
1.0 0.0 0.0
1.0 0.0 0.0
1.0 0.0 0.0
1.0 0.0 0.0
0.0 0.0 0.0
0.0 0.0 0.0
0.0 0.0 0.0
0.0 0.0 0.0
0.0 0.0 0.0
0.0 0.0 0.0
0.0 0.0 0.0
0.0 0.0 0.0
0.0 0.0 0.0
0.0 0.0 0.0
0.0 0.0 0.0
0.0 0.0 0.0
0.0 0.0 0.0
0.0 0.0 0.0
0.0 0.0 0.0
0.0 0.0 0.0
0.0 0.0 0.0
0.0 0.0 0.0
0.0 0.0 0.0
0.0 0.0 0.0
0.0 0.0 0.0
0.0 0.0 0.0
0.0 0.0 0.0
0.0 0.0 0.0
0.0 0.0 0.0
0.0 0.0 0.0
0.0 0.0 0.0
0.0 0.0 0.0
0.0 0.0 0.0
0.0 0.0 0.0
0.0 0.0 0.0
0.0 0.0 0.0
0.0 0.0 0.0
0.0 0.0 0.0
0.0 0.0 0.0
0.0 0.0 0.0
0.0 0.0 0.0
0.0 0.0 0.0
0.0 0.0 0.0
0.0 0.0 0.0
0.0 0.0 0.0
0.0 0.0 0.0
0.0 0.0 0.0
0.0 0.0 0.0
0.0 0.0 0.0
0.0 0.0 0.0
0.0 0.0 0.0
0.0 0.0 0.0
0.0 0.0 0.0
0.0 0.0 0.0
0.0 0.0 0.0
0.0 0.0 0.0
0.0 0.0 0.0
0.0 0.0 0.0
0.0 0.0 0.0
0.0 0.0 0.0
0.0 0.0 0.0
0.0 0.0 0.0
0.0 0.0 0.0
0.0 0.0 0.0
0.0 0.0 0.0
0.0 0.0 0.0
0.0 0.0 0.0
0.0 0.0 0.0
0.0 0.0 0.0
0.0 0.0 0.0
0.0 0.0 0.0
0.0 0.0 0.0
0.0 0.0 0.0
0.0 0.0 0.0
0.0 0.0 0.0
0.0 0.0 0.0
0.0 0.0 0.0
0.0 0.0 0.0
0.0 0.0 0.0
0.0 0.0 0.0
0.0 0.0 0.0
0.0 0.0 0.0
0.0 0.0 0.0
-0.153891581301 0.0358996662521 0.0
-0.188384050208 -0.10822394283 0.0
-0.109806236361 0.170093458517 0.0
-0.0656842581907 -0.0436833142115 0.0
-0.0549633859961 0.0398300969162 0.0
-0.0271526592528 0.0964702174544 0.0
-0.0601468873345 0.106578599949 0.0
-0.136634285348 -0.156505348298 0.0
-0.0661285812135 0.00121830358626 0.0
-0.0198712258867 -0.293656104809 0.0
-0.0869324000211 0.225437176485 0.0
-0.01661283398 -0.0186388361876 0.0
-0.0173589224735 0.017322725005 0.0
0.187873492924 0.00749150128354 0.0
-0.0515676290891 0.161435333554 0.0
0.0415547697336 0.115523281088 0.0
-0.168845896824 -0.303117568712 0.0
-0.0339071899873 -0.065762771219 0.0
-0.0265697681246 0.0570195893581 0.0
-0.042114998411 0.0107180519144 0.0
-0.0446810786311 -0.0110832902387 0.0
-0.189974069595 0.0402871588415 0.0
-0.130726725102 0.112875877081 0.0
-0.152423940829 -0.0554256348011 0.0
-0.0971481806443 0.0281530635995 0.0
-0.145030415932 0.118672251548 0.0
-0.205597103946 -0.0784338049097 0.0
-0.0977358268528 0.0650317864366 0.0
-0.10511162511 -0.00625822426125 0.0
0.24090080855 0.0550011666705 0.0
-0.0220957590719 0.0751107176671 0.0
-0.0695640193323 -0.16253524671 0.0
-0.035617508035 -0.00132095909643 0.0
0.389437947067 -0.050875695281 0.0
-0.0419966626587 0.186034456172 0.0
-0.00912182582073 -0.0256435717883 0.0
-0.0210392700876 0.00720665326958 0.0
-0.129378890179 -0.425149604541 0.0
0.128506512978 0.107673615364 0.0
-0.0211144911847 -0.00842534013025 0.0
-0.00986859689882 0.0262856701243 0.0
-0.138038250088 0.0337125766051 0.0
-0.110585438802 0.14862154411 0.0
-0.11161502214 -0.0839898743997 0.0
-0.0726366943499 0.0205895644773 0.0
-0.10540419968 0.13956294805 0.0
-0.234482992361 -0.18187067403 0.0
-0.0644151287224 0.0696301363596 0.0
-0.0744650333346 -0.0179172114185 0.0
0.0550194929549 -0.369739140551 0.0
-0.0810816274713 0.259713213808 0.0
-0.00282958127873 -0.00493936039547 0.0
-0.00336664656956 0.00494751993458 0.0
0.469821250257 0.0177353849362 0.0
-0.0162369831262 0.0959848653859 0.0
-0.0184642436102 -0.0672687166346 0.0
-0.032191468704 0.00298472951091 0.0
-0.193890035539 -0.279218708552 0.0
-0.0798390302637 0.17557478776 0.0
-0.0429299974683 -0.0254837319216 0.0
-0.0338583886022 0.0397261539866 0.0
-0.0112295366594 -0.0964073477412 0.0
-0.0879611478698 0.198505532494 0.0
-0.0372660714357 -0.0444946384135 0.0
-0.0394519512655 0.0225575353642 0.0
-0.175063129279 0.0736909784977 0.0
-0.200168048317 -0.00311697686586 0.0
-0.13125788384 0.0725198740415 0.0
-0.14235780039 -0.00793193542321 0.0
-0.219951623171 -0.0434327821018 0.0
-0.126001197232 0.142892143175 0.0
-0.103008855919 -0.0395461337343 0.0
-0.0758855034427 0.0462964608439 0.0
0.576698064606 -0.00336175678985 0.0
-0.0150531728796 0.111253984716 0.0
-0.00684590465462 -0.0333287278313 0.0
-0.0231170575084 0.00340677815613 0.0
-0.0577699078541 -0.23141704637 0.0
-0.0259688755207 -0.00377043288912 0.0
0.388474161855 0.0471112765119 0.0
-0.0072069416441 0.0362853810973 0.0
0.3863577353 -0.11047231796 0.0
-0.0544393216283 0.228230947723 0.0
-0.00372960744218 -0.010223641195 0.0
-0.0092273765872 0.00505688481498 0.0
-0.0966788552517 -0.510220253782 0.0
-0.00904447334173 -0.00561635607149 0.0
0.104051843621 0.133935604149 0.0
-0.00428352622708 0.0108974724134 0.0
-0.140819299048 0.0955549428293 0.0
-0.0956458805699 0.10094981431 0.0
-0.163876278987 -0.111797647772 0.0
-0.082431551686 0.00491133031528 0.0
0.110915324442 0.0563517247805 0.0
-0.0472985972191 0.127206505008 0.0
-0.0649676935717 -0.114388961554 0.0
-0.0516979332206 0.00620179399859 0.0
-0.0160156463181 0.108734104051 0.0
-0.0335380693757 0.0804750956249 0.0
-0.12037391574 -0.220845171354 0.0
-0.0457785093739 -0.00695626794744 0.0
-0.125884263625 0.0330864132128 0.0
-0.118334280721 0.0109859042347 0.0
-0.121624772697 -0.00842861490033 0.0
-0.135003764401 0.0127809791769 0.0
-0.000532428662836 -0.00299819476796 0.0
-0.000151704725887 -0.00195151705169 0.0
-0.00206558057397 0.00220706480811 0.0
-0.000316119321075 0.00182401212742 0.0
0.360889597082 -0.150890015227 0.0
0.0537217871314 -0.380390795802 0.0
-0.0679314750483 0.270620086486 0.0
-0.0607824473951 0.284447434602 0.0
-0.00180228067978 -0.00235132564843 0.0
-0.000785980740906 0.00311945485414 0.0
-0.0615173528382 -0.518465204262 0.0
0.117424625167 0.153161901822 0.0
-0.103903834735 0.0118554530629 0.0
-0.111149937245 0.0306490208616 0.0
-0.146294782141 0.110111590146 0.0
-0.115849739739 0.118642553186 0.0
-0.129475537961 0.129856614826 0.0
-0.194166148356 -0.0997529519871 0.0
-0.19761312615 -0.13970580111 0.0
-0.222342965031 -0.116382255344 0.0
-0.0958991898595 0.0823495495464 0.0
-0.0783648189205 0.087379869275 0.0
-0.0809324801941 0.0710970847796 0.0
-0.0931675848704 -0.000476594320652 0.0
-0.0817155307218 -0.00596545793489 0.0
-0.0898724301804 -0.0150279273856 0.0
-0.132577383276 0.0924391301594 0.0
-0.152237584507 0.0741914077001 0.0
-0.150676312966 0.0957560602627 0.0
-0.158528180072 0.10078242329 0.0
-0.143714695657 0.115756323421 0.0
-0.178326261927 -0.0341005361751 0.0
-0.168147112452 -0.00703838381504 0.0
-0.148076789222 -0.0302161581758 0.0
-0.185247234782 -0.0651279720653 0.0
-0.206781697625 -0.0430168395347 0.0
-0.0943737385708 0.0997037484945 0.0
-0.0713331344005 0.117275652788 0.0
-0.0780446308876 0.106632488253 0.0
-0.0625901498768 0.09003481872 0.0
-0.157222845074 -0.134920742201 0.0
-0.182135849277 -0.174273064098 0.0
-0.0758887832043 0.00299957896361 0.0
-0.0711200528335 -0.00586592781924 0.0
-0.0720026904892 0.161957743863 0.0
-0.0894082401679 0.176160133054 0.0
-0.0707609321644 0.184116864165 0.0
0.0315519498791 0.0192666955981 0.0
-0.048435009011 -0.0263284640417 0.0
0.0886657804243 -0.0286217628241 0.0
-0.0530940947562 0.0155479283688 0.0
-0.0525312213061 0.0231632123817 0.0
-0.0420356710232 0.0162226628312 0.0
-0.0585071847297 -0.0788206387267 0.0
-0.0577190597781 -0.0625811025075 0.0
-0.0364467043159 -0.0557970012955 0.0
-0.100317546825 0.18381486014 0.0
-0.105378911702 0.165494907275 0.0
-0.121490448493 -0.101946610271 0.0
-0.145111580171 -0.0372657688885 0.0
-0.0484983764327 0.0312245509229 0.0
-0.0615994184386 0.0316346971913 0.0
-0.0539402422764 -0.0469662980288 0.0
-0.0757752491087 -0.0584264755078 0.0
-0.204870392326 -0.3186617798 0.0
-0.225299747751 -0.235534598558 0.0
-0.208198788158 -0.259252537901 0.0
-0.0345031201613 0.146709162591 0.0
-0.0844903489006 0.157686256711 0.0
-0.044408873583 0.136234107808 0.0
-0.0447963080479 -0.017637978985 0.0
-0.0575974726248 -0.0243677696489 0.0
-0.0563654203714 -0.0156119918761 0.0
-0.0306675619201 0.0489077018977 0.0
-0.0449900204985 0.053169410479 0.0
-0.0410359407325 0.0636344768037 0.0
-0.113075067315 0.0515055947576 0.0
-0.0995551140565 0.0463304373992 0.0
0.611586382779 0.0189723337185 0.0
0.628556322114 0.0151797862622 0.0
-0.0044075455195 0.0379635751574 0.0
-0.00521134231624 0.0481921783789 0.0
-0.0183590691732 -0.104485560811 0.0
-0.0136327673482 -0.0755769327663 0.0
-0.0230410859328 -0.000957679468933 0.0
-0.0237986201982 0.000193768161955 0.0
-0.0184316530045 -0.125552901787 0.0
-0.0616595793811 -0.20074083536 0.0
-0.0202863596057 -0.00157452037271 0.0
-0.0322389009718 -0.0032733548427 0.0
0.647732194614 0.0184417298913 0.0
0.34207032908 0.0506260293151 0.0
-0.00276265908477 0.026016473279 0.0
-0.0112663587076 0.0506537746735 0.0
-0.159717611736 -0.0836930446443 0.0
-0.090943850606 0.0142123170835 0.0
-0.226776617808 -0.153358775909 0.0
-0.193396404849 -0.182851407893 0.0
-0.109392964655 0.159113726038 0.0
-0.100739975586 0.17620237794 0.0
-0.0705950074817 -0.0321433769421 0.0
-0.0549569013532 -0.0347026527012 0.0
-0.057734566106 0.0515858581944 0.0
-0.0459652968009 0.0412371075 0.0
-0.135527189586 0.13168297892 0.0
-0.128447542543 0.130602069634 0.0
-0.0860717721399 0.0556392229386 0.0
-0.0871508244413 0.039235765223 0.0
-0.128732926807 0.0536731614072 0.0
-0.112994906204 0.0702948072333 0.0
-0.168078158936 0.0511358869131 0.0
-0.147243677639 0.054625033755 0.0
-0.154618494703 0.0147904390198 0.0
-0.175313506299 0.0215634177272 0.0
-0.115049059039 -0.243449956323 0.0
-0.112380687894 -0.291014449031 0.0
-0.0434592489295 -0.00578554260861 0.0
-0.0350457858973 -0.0067974851032 0.0
0.14427769456 0.0848643231949 0.0
0.186010497885 0.0819510751119 0.0
-0.0227845230914 0.0652727231381 0.0
-0.0153264020666 0.0482430960105 0.0
0.707649868966 -0.0141870945473 0.0
0.668360076129 -0.026484740911 0.0
-0.0107928425634 0.106752023119 0.0
-0.0155894268168 0.132780426922 0.0
-0.0019440045617 -0.0144255026006 0.0
-0.00172416240419 -0.0105293952508 0.0
-0.013978072454 0.00230345336821 0.0
-0.010895219232 0.00262526024259 0.0
-0.0482899930856 -0.335188142605 0.0
-0.0388347480745 -0.255793083797 0.0
-0.0112582191829 -0.00323451798907 0.0
-0.0148044001734 -0.00295389660968 0.0
0.450802633442 0.0446378149577 0.0
0.521003374367 0.0332557289657 0.0
-0.00221132002147 0.0120316348466 0.0
-0.00248971492986 0.0164541156482 0.0
0.391367008222 0.0325879305166 0.0
0.696093251295 0.007585804604 0.0
-0.0172397691541 0.0859848217119 0.0
-0.00455465373148 0.0534566126698 0.0
-0.0323165664416 -0.100846458894 0.0
-0.00743459378123 -0.0479698689639 0.0
-0.0361245522487 0.00158231826595 0.0
-0.0226621848772 0.00126529537465 0.0
-0.159673585239 -0.366054156508 0.0
-0.180825087055 -0.380666850894 0.0
0.0694635255158 0.116491015628 0.0
-0.0276258523816 0.158721534053 0.0
-0.033974228432 -0.0110872166515 0.0
-0.0321349986268 -0.0166681409634 0.0
-0.0179893732991 0.0415721125641 0.0
-0.0214646599706 0.0350018626571 0.0
0.0396544365749 0.0756337674298 0.0
0.179213548889 0.0599387169267 0.0
0.0781498274928 0.0835066083424 0.0
-0.0542905533303 0.118946548145 0.0
-0.0341000252551 0.105311242005 0.0
-0.0405840216464 0.0982730908374 0.0
-0.0970962416961 -0.135996763407 0.0
-0.0676514908801 -0.13489399663 0.0
-0.106699491442 -0.171003945422 0.0
-0.0593044163852 0.00475675705856 0.0
-0.0485606194228 0.00221804258531 0.0
-0.0550172842889 -0.000440400129413 0.0
-0.204405581671 0.00678014464669 0.0
-0.181290936472 -0.00600388224723 0.0
-0.16791603017 0.040095459204 0.0
-0.114844548212 0.146988046151 0.0
-0.112740114497 0.129898912746 0.0
-0.124491485132 -0.0483285206069 0.0
-0.101073698809 -0.0595801634859 0.0
-0.126639750301 -0.0730582084817 0.0
-0.0745574222427 0.0337813912569 0.0
-0.0830534937467 0.0250089794941 0.0
0.171769768503 -0.138523104624 0.0
0.148468436212 -0.0811438189774 0.0
-0.000844048336376 -0.181008613445 0.0
-0.0741081497629 0.226201303198 0.0
-0.0701407382136 0.205600399037 0.0
-0.0888454927497 0.216045671594 0.0
-0.0139945679431 -0.0242972529593 0.0
-0.0219175433037 -0.0372732466159 0.0
-0.0253420935 -0.0302947520929 0.0
-0.0211754111636 0.0125254106789 0.0
-0.0306397273121 0.0145676245678 0.0
-0.0280782701895 0.0206883209745 0.0
-0.208383552859 -0.073768738218 0.0
-0.117368901883 0.156481271527 0.0
-0.0837549966481 -0.0442003203879 0.0
-0.0669455538891 0.0435307661923 0.0
-0.202808947098 0.020619332807 0.0
-0.216144870298 -0.0199291508761 0.0
-0.225050085809 -0.0675279551743 0.0
-0.123543095214 -0.0273574984823 0.0
-0.104031813157 -0.0226811182892 0.0
0.748243934714 0.00145391248699 0.0
-0.00412436806532 0.0585930248301 0.0
-0.00420417741998 -0.0316994454308 0.0
-0.0205902774486 0.00168485413023 0.0
-0.00413691067143 0.10563604906 0.0
-0.0423743671847 0.123538132279 0.0
-0.150587225234 -0.194110869169 0.0
-0.189298620158 -0.217975061112 0.0
-0.0478074341929 0.0907020250995 0.0
-0.0484250214608 0.077919152834 0.0
-0.0612166866214 -0.00426590735402 0.0
-0.0626623380851 -0.0104067512438 0.0
0.392580633388 -0.0857772581646 0.0
0.647206720681 -0.0377515003464 0.0
-0.0484631448825 0.210082796187 0.0
-0.0200639822353 0.154229075373 0.0
-0.00578569581608 -0.0159895649809 0.0
-0.00114681844735 -0.00669599070992 0.0
-0.0142533234291 0.00633998632531 0.0
-0.00747540449441 0.00235664405718 0.0
-0.0482663728946 -0.388347060979 0.0
-0.113876481323 -0.482079476047 0.0
-0.00756876001827 -0.00276657227778 0.0
-0.0141870028778 -0.00726872256115 0.0
0.42021108278 0.0526037707446 0.0
0.110939139955 0.123518853443 0.0
-0.00149090187951 0.0076006988539 0.0
-0.00660672066943 0.0167907281886 0.0
-0.0484659053309 0.177189878831 0.0
0.272187250551 -0.0256021777563 0.0
-0.0323691548811 0.0099602823702 0.0
-0.0194967912258 -0.0440726180684 0.0
-0.128761372692 -0.303251000098 0.0
-0.140025306873 -0.424078521071 0.0
-0.0815210800112 0.197658498585 0.0
-0.0320260942951 0.176366662023 0.0
-0.0291908720129 -0.0233794109698 0.0
-0.0213181134306 -0.01419787369 0.0
-0.0250534341582 0.027839980639 0.0
-0.0147950744912 0.0236258765291 0.0
-0.000834622122216 -0.00443301057513 0.0
0.559836704203 -0.0648806314863 0.0
-0.0045718024069 0.00223265670506 0.0
-0.0341238040395 0.198933466962 0.0
-0.0565047590755 -0.46369813119 0.0
-0.00442470593818 -0.00248249128345 0.0
0.313848504673 0.0796497357246 0.0
-0.0011126591859 0.00488298257506 0.0
0.257560037022 0.039219441646 0.0
-0.0321720871359 0.117495300402 0.0
-0.0421600739361 -0.097833317686 0.0
-0.043614000807 0.00452855958159 0.0
-0.00372140783963 -0.00796886853872 0.0
-0.0066972031439 0.00557595252886 0.0
0.237430306603 -0.201694341908 0.0
-0.0790923178217 0.260971007691 0.0
-0.0669207270453 -0.493880275644 0.0
-0.00613905882785 -0.00589866158496 0.0
-0.00938181180077 0.192487233562 0.0
-0.0043632378855 0.00826503466805 0.0
-0.11956783995 -0.192139720983 0.0
-0.0955229940744 0.196049121284 0.0
-0.0396163843062 -0.0343602114224 0.0
-0.0364703724088 0.0304359909942 0.0
-0.125880255102 0.0729070658403 0.0
-0.168902677107 0.0684304268597 0.0
-0.0951538669828 0.122240673793 0.0
-0.113338301882 0.109075608942 0.0
-0.135567351244 -0.101239036946 0.0
-0.0788472144336 0.013487416544 0.0
0.0827472515672 0.091701945444 0.0
-0.0331405430947 0.0815570415111 0.0
0.0230204531038 0.112115579115 0.0
-0.0347556923928 0.0711997806487 0.0
-0.123248627622 -0.211420202296 0.0
-0.0516087410364 -0.0043741026244 0.0
-0.16425788469 -0.252033697245 0.0
-0.0526406361846 -0.00913859517403 0.0
0.768207035534 -0.00540955739222 0.0
0.500661209008 -0.0157370323971 0.0
-0.00623662850436 0.0785641855682 0.0
-0.0244081330643 0.14304890707 0.0
0.275627505074 0.0682456543079 0.0
0.379964680031 -3.69817404566e-05 0.0
-0.0311140342792 0.143844355402 0.0
-0.0896425331483 -0.31950433653 0.0
-0.00841822917426 0.0321378329101 0.0
-0.0248482669501 -0.00571401395728 0.0
0.621955413033 0.0216929521588 0.0
-0.0238255394924 -0.170035008919 0.0
-0.00224384200219 0.0196543481429 0.0
-0.0175473718349 -0.00212116173385 0.0
-0.00171160962373 -0.0172622881905 0.0
-0.00812095114408 -0.0307071142609 0.0
-0.0158748854528 0.001666533212 0.0
-0.023379346595 0.00492005640477 0.0
-0.0169122847417 -0.0493891159316 0.0
-0.0322987529254 0.00642580508245 0.0
-0.0559796292925 0.0768106904631 0.0
-0.0755580305889 0.12595694842 0.0
-0.116514389918 -0.119256964348 0.0
-0.0688428637456 0.00936976292293 0.0
-0.167942262927 0.086143911089 0.0
-0.18663850356 0.0568126683581 0.0
-0.113549222854 0.0887830575863 0.0
0.182042024907 -0.190663461851 0.0
-0.0788257597381 0.244148193673 0.0
-0.093484514815 -0.450737065192 0.0
-0.00863337467561 -0.0151843268604 0.0
-0.0360689086337 0.193315310078 0.0
-0.0134198945786 0.009679709478 0.0
-0.0129233656407 -0.01056881483 0.0
-0.00950410500562 0.0151281132929 0.0
0.139520037258 0.0367220755677 0.0
0.0151394453165 0.0551355207455 0.0
-0.0510239437268 0.143633129536 0.0
-0.0670636041109 0.140373001188 0.0
-0.0810972577873 -0.104813451163 0.0
-0.0508959105103 -0.0899761891114 0.0
-0.0490487553755 0.0091085297679 0.0
-0.0594902837178 0.0111251665295 0.0
-0.122879541607 0.145200431066 0.0
-0.232532928188 -0.109541332434 0.0
-0.0716428228057 0.0574294446757 0.0
-0.086547004627 -0.0287851738721 0.0
0.0292978548427 -0.339341260078 0.0
-0.0833859006018 0.241888647256 0.0
-0.00834977704716 -0.0106508064861 0.0
-0.00911841116484 0.0103232668624 0.0
-0.18779053774 0.0380697432349 0.0
0.528480150605 0.00584488132939 0.0
0.782397275541 -0.00220181983839 0.0
-0.015796450574 0.105367970681 0.0
-0.00428459651653 0.0642455296599 0.0
0.311777004857 0.0202378844124 0.0
-0.0324227416174 0.131977507455 0.0
-0.0112180201237 -0.0467482476201 0.0