# vtk DataFile Version 2.0
2D Simulation Python
ASCII
DATASET UNSTRUCTURED_GRID
FIELD FieldData 1
NODES 1 2 int
7905 15488

POINTS 7905 double
0.0 0.0 0.0
1.0 0.0 0.0
1.0 1.0 0.0
0.0 1.0 0.0
0.01249999999997639 0.0 0.0
0.02499999999995297 0.0 0.0
0.03749999999992721 0.0 0.0
0.04999999999989927 0.0 0.0
0.0624999999998716 0.0 0.0
0.07499999999985263 0.0 0.0
0.08749999999983366 0.0 0.0
0.09999999999981467 0.0 0.0
0.1124999999997956 0.0 0.0
0.1249999999997765 0.0 0.0
0.1374999999997401 0.0 0.0
0.1499999999997036 0.0 0.0
0.1624999999996672 0.0 0.0
0.1749999999996308 0.0 0.0
0.1874999999995943 0.0 0.0
0.1999999999995579 0.0 0.0
0.2124999999995214 0.0 0.0
0.224999999999485 0.0 0.0
0.2374999999994485 0.0 0.0
0.2499999999994121 0.0 0.0
0.2624999999993757 0.0 0.0
0.2749999999993393 0.0 0.0
0.2874999999993028 0.0 0.0
0.2999999999992664 0.0 0.0
0.3124999999992299 0.0 0.0
0.3249999999991935 0.0 0.0
0.3374999999991571 0.0 0.0
0.3499999999991207 0.0 0.0
0.3624999999990842 0.0 0.0
0.3749999999990478 0.0 0.0
0.3874999999990113 0.0 0.0
0.3999999999989749 0.0 0.0
0.4124999999989398 0.0 0.0
0.4249999999989048 0.0 0.0
0.4374999999988697 0.0 0.0
0.4499999999988346 0.0 0.0
0.4624999999987995 0.0 0.0
0.4749999999987644 0.0 0.0
0.4874999999987293 0.0 0.0
0.4999999999986943 0.0 0.0
0.5124999999987259 0.0 0.0
0.5249999999987575 0.0 0.0
0.5374999999987891 0.0 0.0
0.5499999999988205 0.0 0.0
0.5624999999988521 0.0 0.0
0.5749999999988837 0.0 0.0
0.5874999999989152 0.0 0.0
0.5999999999989468 0.0 0.0
0.6124999999989797 0.0 0.0
0.6249999999990127 0.0 0.0
0.6374999999990456 0.0 0.0
0.6499999999990784 0.0 0.0
0.6624999999991114 0.0 0.0
0.6749999999991443 0.0 0.0
0.6874999999991771 0.0 0.0
0.69999999999921 0.0 0.0
0.712499999999243 0.0 0.0
0.7249999999992759 0.0 0.0
0.7374999999993088 0.0 0.0
0.7499999999993416 0.0 0.0
0.7624999999993746 0.0 0.0
0.7749999999994075 0.0 0.0
0.7874999999994404 0.0 0.0
0.7999999999994734 0.0 0.0
0.8124999999995063 0.0 0.0
0.8249999999995392 0.0 0.0
0.8374999999995721 0.0 0.0
0.8499999999996051 0.0 0.0
0.862499999999638 0.0 0.0
0.8749999999996709 0.0 0.0
0.8874999999997039 0.0 0.0
0.8999999999997368 0.0 0.0
0.9124999999997697 0.0 0.0
0.9249999999998026 0.0 0.0
0.9374999999998355 0.0 0.0
0.9499999999998684 0.0 0.0
0.9624999999999013 0.0 0.0
0.9749999999999343 0.0 0.0
0.9874999999999672 0.0 0.0
1.0 0.01249999999997639 0.0
1.0 0.02499999999995297 0.0
1.0 0.03749999999992721 0.0
1.0 0.04999999999989927 0.0
1.0 0.0624999999998716 0.0
1.0 0.07499999999985263 0.0
1.0 0.08749999999983366 0.0
1.0 0.09999999999981467 0.0
1.0 0.1124999999997956 0.0
1.0 0.1249999999997765 0.0
1.0 0.1374999999997401 0.0
1.0 0.1499999999997036 0.0
1.0 0.1624999999996672 0.0
1.0 0.1749999999996308 0.0
1.0 0.1874999999995943 0.0
1.0 0.1999999999995579 0.0
1.0 0.2124999999995214 0.0
1.0 0.224999999999485 0.0
1.0 0.2374999999994485 0.0
1.0 0.2499999999994121 0.0
1.0 0.2624999999993757 0.0
1.0 0.2749999999993393 0.0
1.0 0.2874999999993028 0.0
1.0 0.2999999999992664 0.0
1.0 0.3124999999992299 0.0
1.0 0.3249999999991935 0.0
1.0 0.3374999999991571 0.0
1.0 0.3499999999991207 0.0
1.0 0.3624999999990842 0.0
1.0 0.3749999999990478 0.0
1.0 0.3874999999990113 0.0
1.0 0.3999999999989749 0.0
1.0 0.4124999999989398 0.0
1.0 0.4249999999989048 0.0
1.0 0.4374999999988697 0.0
1.0 0.4499999999988346 0.0
1.0 0.4624999999987995 0.0
1.0 0.4749999999987644 0.0
1.0 0.4874999999987293 0.0
1.0 0.4999999999986943 0.0
1.0 0.5124999999987259 0.0
1.0 0.5249999999987575 0.0
1.0 0.5374999999987891 0.0
1.0 0.5499999999988205 0.0
1.0 0.5624999999988521 0.0
1.0 0.5749999999988837 0.0
1.0 0.5874999999989152 0.0
1.0 0.5999999999989468 0.0
1.0 0.6124999999989797 0.0
1.0 0.6249999999990127 0.0
1.0 0.6374999999990456 0.0
1.0 0.6499999999990784 0.0
1.0 0.6624999999991114 0.0
1.0 0.6749999999991443 0.0
1.0 0.6874999999991771 0.0
1.0 0.69999999999921 0.0
1.0 0.712499999999243 0.0
1.0 0.7249999999992759 0.0
1.0 0.7374999999993088 0.0
1.0 0.7499999999993416 0.0
1.0 0.7624999999993746 0.0
1.0 0.7749999999994075 0.0
1.0 0.7874999999994404 0.0
1.0 0.7999999999994734 0.0
1.0 0.8124999999995063 0.0
1.0 0.8249999999995392 0.0
1.0 0.8374999999995721 0.0
1.0 0.8499999999996051 0.0
1.0 0.862499999999638 0.0
1.0 0.8749999999996709 0.0
1.0 0.8874999999997039 0.0
1.0 0.8999999999997368 0.0
1.0 0.9124999999997697 0.0
1.0 0.9249999999998026 0.0
1.0 0.9374999999998355 0.0
1.0 0.9499999999998684 0.0
1.0 0.9624999999999013 0.0
1.0 0.9749999999999343 0.0
1.0 0.9874999999999672 0.0
0.9874999999999439 1.0 0.0
0.9749999999998877 1.0 0.0
0.9624999999998541 1.0 0.0
0.9499999999998356 1.0 0.0
0.9374999999997805 1.0 0.0
0.9249999999996992 1.0 0.0
0.9124999999996414 1.0 0.0
0.8999999999995836 1.0 0.0
0.8874999999996454 1.0 0.0
0.8749999999997078 1.0 0.0
0.8624999999997771 1.0 0.0
0.8499999999998515 1.0 0.0
0.837499999999895 1.0 0.0
0.8249999999999216 1.0 0.0
0.8124999999999571 1.0 0.0
0.7999999999999998 1.0 0.0
0.7875000000000937 1.0 0.0
0.77500000000021 1.0 0.0
0.7625000000002968 1.0 0.0
0.7500000000003858 1.0 0.0
0.7375000000004739 1.0 0.0
0.7250000000005448 1.0 0.0
0.7125000000005861 1.0 0.0
0.7000000000006934 1.0 0.0
0.6875000000008109 1.0 0.0
0.6750000000009306 1.0 0.0
0.6625000000010091 1.0 0.0
0.6500000000010593 1.0 0.0
0.6375000000011386 1.0 0.0
0.6250000000012101 1.0 0.0
0.612500000001312 1.0 0.0
0.6000000000013869 1.0 0.0
0.5875000000014601 1.0 0.0
0.5750000000015277 1.0 0.0
0.5625000000016089 1.0 0.0
0.5500000000016854 1.0 0.0
0.5375000000017889 1.0 0.0
0.5250000000018821 1.0 0.0
0.5125000000019756 1.0 0.0
0.5000000000020587 1.0 0.0
0.4875000000020093 1.0 0.0
0.4750000000019601 1.0 0.0
0.4625000000019108 1.0 0.0
0.4500000000018616 1.0 0.0
0.4375000000018123 1.0 0.0
0.425000000001763 1.0 0.0
0.4125000000017136 1.0 0.0
0.4000000000016644 1.0 0.0
0.3875000000016123 1.0 0.0
0.3750000000015603 1.0 0.0
0.3625000000015083 1.0 0.0
0.3500000000014563 1.0 0.0
0.3375000000014042 1.0 0.0
0.3250000000013522 1.0 0.0
0.3125000000013003 1.0 0.0
0.3000000000012483 1.0 0.0
0.2875000000011962 1.0 0.0
0.2750000000011442 1.0 0.0
0.2625000000010922 1.0 0.0
0.2500000000010403 1.0 0.0
0.2375000000009883 1.0 0.0
0.2250000000009362 1.0 0.0
0.2125000000008842 1.0 0.0
0.2000000000008322 1.0 0.0
0.1875000000007802 1.0 0.0
0.1750000000007281 1.0 0.0
0.1625000000006761 1.0 0.0
0.1500000000006241 1.0 0.0
0.1375000000005721 1.0 0.0
0.12500000000052 1.0 0.0
0.112500000000468 1.0 0.0
0.100000000000416 1.0 0.0
0.08750000000036395 1.0 0.0
0.07500000000031193 1.0 0.0
0.06250000000026001 1.0 0.0
0.05000000000020799 1.0 0.0
0.03750000000015596 1.0 0.0
0.02500000000010394 1.0 0.0
0.01250000000005191 1.0 0.0
0.0 0.9874999999999439 0.0
0.0 0.9749999999998877 0.0
0.0 0.9624999999998541 0.0
0.0 0.9499999999998356 0.0
0.0 0.9374999999997805 0.0
0.0 0.9249999999996992 0.0
0.0 0.9124999999996414 0.0
0.0 0.8999999999995836 0.0
0.0 0.8874999999996454 0.0
0.0 0.8749999999997078 0.0
0.0 0.8624999999997771 0.0
0.0 0.8499999999998515 0.0
0.0 0.837499999999895 0.0
0.0 0.8249999999999216 0.0
0.0 0.8124999999999571 0.0
0.0 0.7999999999999998 0.0
0.0 0.7875000000000937 0.0
0.0 0.77500000000021 0.0
0.0 0.7625000000002968 0.0
0.0 0.7500000000003858 0.0
0.0 0.7375000000004739 0.0
0.0 0.7250000000005448 0.0
0.0 0.7125000000005861 0.0
0.0 0.7000000000006934 0.0
0.0 0.6875000000008109 0.0
0.0 0.6750000000009306 0.0
0.0 0.6625000000010091 0.0
0.0 0.6500000000010593 0.0
0.0 0.6375000000011386 0.0
0.0 0.6250000000012101 0.0
0.0 0.612500000001312 0.0
0.0 0.6000000000013869 0.0
0.0 0.5875000000014601 0.0
0.0 0.5750000000015277 0.0
0.0 0.5625000000016089 0.0
0.0 0.5500000000016854 0.0
0.0 0.5375000000017889 0.0
0.0 0.5250000000018821 0.0
0.0 0.5125000000019756 0.0
0.0 0.5000000000020587 0.0
0.0 0.4875000000020093 0.0
0.0 0.4750000000019601 0.0
0.0 0.4625000000019108 0.0
0.0 0.4500000000018616 0.0
0.0 0.4375000000018123 0.0
0.0 0.425000000001763 0.0
0.0 0.4125000000017136 0.0
0.0 0.4000000000016644 0.0
0.0 0.3875000000016123 0.0
0.0 0.3750000000015603 0.0
0.0 0.3625000000015083 0.0
0.0 0.3500000000014563 0.0
0.0 0.3375000000014042 0.0
0.0 0.3250000000013522 0.0
0.0 0.3125000000013003 0.0
0.0 0.3000000000012483 0.0
0.0 0.2875000000011962 0.0
0.0 0.2750000000011442 0.0
0.0 0.2625000000010922 0.0
0.0 0.2500000000010403 0.0
0.0 0.2375000000009883 0.0
0.0 0.2250000000009362 0.0
0.0 0.2125000000008842 0.0
0.0 0.2000000000008322 0.0
0.0 0.1875000000007802 0.0
0.0 0.1750000000007281 0.0
0.0 0.1625000000006761 0.0
0.0 0.1500000000006241 0.0
0.0 0.1375000000005721 0.0
0.0 0.12500000000052 0.0
0.0 0.112500000000468 0.0
0.0 0.100000000000416 0.0
0.0 0.08750000000036395 0.0
0.0 0.07500000000031193 0.0
0.0 0.06250000000026001 0.0
0.0 0.05000000000020799 0.0
0.0 0.03750000000015596 0.0
0.0 0.02500000000010394 0.0
0.0 0.01250000000005191 0.0
0.499547313951317 0.4984202829398231 0.0
0.7057142553715264 0.7049957919913439 0.0
0.2942617789825218 0.706558362574613 0.0
0.7052750732513358 0.29408370064617073 0.0
0.2941161372558304 0.29425664999463297 0.0
0.49473409022248005 0.7865288457870021 0.0
0.21400675843102512 0.49559804899934157 0.0
0.7879606576561358 0.5053778129282838 0.0
0.505369301426186 0.2119891966328729 0.0
0.8286074034533916 0.8287576993256224 0.0
0.17122528584787128 0.8286011816233976 0.0
0.8287577004551061 0.17139259539200086 0.0
0.17140751986106711 0.17123186221929698 0.0
0.6412438345717256 0.8516520873564006 0.0
0.14868333985619164 0.6419476520576217 0.0
0.36001439100831745 0.8471882363166383 0.0
0.8472916681795735 0.639858398754968 0.0
0.8516551147624887 0.3587551765143301 0.0
0.1529024464427883 0.36006180552290556 0.0
0.3587547979315107 0.148343271772372 0.0
0.6398585806283599 0.15270777331315408 0.0
0.5665851234669081 0.6415505082226679 0.0
0.3688065763014604 0.5781443560211958 0.0
0.6448511073779454 0.4469929790001165 0.0
0.43335085497228876 0.35323599965884955 0.0
0.42653529248703315 0.6555720715037009 0.0
0.6657620768186652 0.5502649260729648 0.0
0.3566111211511165 0.42874186251021185 0.0
0.5447859278293945 0.34262223816401394 0.0
0.4594948214297615 0.8920313032464312 0.0
[...]
POINT_DATA 7905
VECTORS vector double
0.0 0.0 0.0
0.0 0.0 0.0
0.0 0.0 0.0
0.0 0.0 0.0
0.0 0.0 0.0
0.0 0.0 0.0
0.0 0.0 0.0
0.0 0.0 0.0
0.0 0.0 0.0
0.0 0.0 0.0
0.0 0.0 0.0
0.0 0.0 0.0
0.0 0.0 0.0
0.0 0.0 0.0
0.0 0.0 0.0
0.0 0.0 0.0
0.0 0.0 0.0
0.0 0.0 0.0
0.0 0.0 0.0
0.0 0.0 0.0
0.0 0.0 0.0
0.0 0.0 0.0
0.0 0.0 0.0
0.0 0.0 0.0
0.0 0.0 0.0
0.0 0.0 0.0
0.0 0.0 0.0
0.0 0.0 0.0
0.0 0.0 0.0
0.0 0.0 0.0
0.0 0.0 0.0
0.0 0.0 0.0
0.0 0.0 0.0
0.0 0.0 0.0
0.0 0.0 0.0
0.0 0.0 0.0
0.0 0.0 0.0
0.0 0.0 0.0
0.0 0.0 0.0
0.0 0.0 0.0
0.0 0.0 0.0
0.0 0.0 0.0
0.0 0.0 0.0
0.0 0.0 0.0
0.0 0.0 0.0
0.0 0.0 0.0
0.0 0.0 0.0
0.0 0.0 0.0
0.0 0.0 0.0
0.0 0.0 0.0
0.0 0.0 0.0
0.0 0.0 0.0
0.0 0.0 0.0
0.0 0.0 0.0
0.0 0.0 0.0
0.0 0.0 0.0
0.0 0.0 0.0
0.0 0.0 0.0
0.0 0.0 0.0
0.0 0.0 0.0
0.0 0.0 0.0
0.0 0.0 0.0
0.0 0.0 0.0
0.0 0.0 0.0
0.0 0.0 0.0
0.0 0.0 0.0
0.0 0.0 0.0
0.0 0.0 0.0
0.0 0.0 0.0
0.0 0.0 0.0
0.0 0.0 0.0
0.0 0.0 0.0
0.0 0.0 0.0
0.0 0.0 0.0
0.0 0.0 0.0
0.0 0.0 0.0
0.0 0.0 0.0
0.0 0.0 0.0
0.0 0.0 0.0
0.0 0.0 0.0
0.0 0.0 0.0
0.0 0.0 0.0
0.0 0.0 0.0
0.0 0.0 0.0
0.0 0.0 0.0
0.0 0.0 0.0
0.0 0.0 0.0
0.0 0.0 0.0
0.0 0.0 0.0
0.0 0.0 0.0
0.0 0.0 0.0
0.0 0.0 0.0
0.0 0.0 0.0
0.0 0.0 0.0
0.0 0.0 0.0
0.0 0.0 0.0
0.0 0.0 0.0
0.0 0.0 0.0
0.0 0.0 0.0
0.0 0.0 0.0
0.0 0.0 0.0
0.0 0.0 0.0
0.0 0.0 0.0
0.0 0.0 0.0
0.0 0.0 0.0
0.0 0.0 0.0
0.0 0.0 0.0
0.0 0.0 0.0
0.0 0.0 0.0
0.0 0.0 0.0
0.0 0.0 0.0
0.0 0.0 0.0
0.0 0.0 0.0
0.0 0.0 0.0
0.0 0.0 0.0
0.0 0.0 0.0
0.0 0.0 0.0
0.0 0.0 0.0
0.0 0.0 0.0
0.0 0.0 0.0
0.0 0.0 0.0
0.0 0.0 0.0
0.0 0.0 0.0
0.0 0.0 0.0
0.0 0.0 0.0
0.0 0.0 0.0
0.0 0.0 0.0
0.0 0.0 0.0
0.0 0.0 0.0
0.0 0.0 0.0
0.0 0.0 0.0
0.0 0.0 0.0
0.0 0.0 0.0
0.0 0.0 0.0
0.0 0.0 0.0
0.0 0.0 0.0
0.0 0.0 0.0
0.0 0.0 0.0
0.0 0.0 0.0
0.0 0.0 0.0
0.0 0.0 0.0
0.0 0.0 0.0
0.0 0.0 0.0
0.0 0.0 0.0
0.0 0.0 0.0
0.0 0.0 0.0
0.0 0.0 0.0
0.0 0.0 0.0
0.0 0.0 0.0
0.0 0.0 0.0
0.0 0.0 0.0
0.0 0.0 0.0
0.0 0.0 0.0
0.0 0.0 0.0
0.0 0.0 0.0
0.0 0.0 0.0
0.0 0.0 0.0
0.0 0.0 0.0
0.0 0.0 0.0
0.0 0.0 0.0
0.0 0.0 0.0
0.0 0.0 0.0
1.0 0.0 0.0
1.0 0.0 0.0
1.0 0.0 0.0
1.0 0.0 0.0
1.0 0.0 0.0
1.0 0.0 0.0
1.0 0.0 0.0
1.0 0.0 0.0
1.0 0.0 0.0
1.0 0.0 0.0
1.0 0.0 0.0
1.0 0.0 0.0
1.0 0.0 0.0
1.0 0.0 0.0
1.0 0.0 0.0
1.0 0.0 0.0
1.0 0.0 0.0
1.0 0.0 0.0
1.0 0.0 0.0
1.0 0.0 0.0
1.0 0.0 0.0
1.0 0.0 0.0
1.0 0.0 0.0
1.0 0.0 0.0
1.0 0.0 0.0
1.0 0.0 0.0
1.0 0.0 0.0
1.0 0.0 0.0
1.0 0.0 0.0
1.0 0.0 0.0
1.0 0.0 0.0
1.0 0.0 0.0
1.0 0.0 0.0
1.0 0.0 0.0
1.0 0.0 0.0
1.0 0.0 0.0
1.0 0.0 0.0
1.0 0.0 0.0
1.0 0.0 0.0
1.0 0.0 0.0
1.0 0.0 0.0
1.0 0.0 0.0
1.0 0.0 0.0
1.0 0.0 0.0
1.0 0.0 0.0
1.0 0.0 0.0
1.0 0.0 0.0
1.0 0.0 0.0
1.0 0.0 0.0
1.0 0.0 0.0
1.0 0.0 0.0
1.0 0.0 0.0
1.0 0.0 0.0
1.0 0.0 0.0
1.0 0.0 0.0
1.0 0.0 0.0
1.0 0.0 0.0
1.0 0.0 0.0
1.0 0.0 0.0
1.0 0.0 0.0
1.0 0.0 0.0
1.0 0.0 0.0
1.0 0.0 0.0
1.0 0.0 0.0
1.0 0.0 0.0
1.0 0.0 0.0
1.0 0.0 0.0
1.0 0.0 0.0
1.0 0.0 0.0
1.0 0.0 0.0
1.0 0.0 0.0
1.0 0.0 0.0
1.0 0.0 0.0
1.0 0.0 0.0
1.0 0.0 0.0
1.0 0.0 0.0
1.0 0.0 0.0
1.0 0.0 0.0
1.0 0.0 0.0
0.0 0.0 0.0
0.0 0.0 0.0
0.0 0.0 0.0
0.0 0.0 0.0
0.0 0.0 0.0
0.0 0.0 0.0
0.0 0.0 0.0
0.0 0.0 0.0
0.0 0.0 0.0
0.0 0.0 0.0
0.0 0.0 0.0
0.0 0.0 0.0
0.0 0.0 0.0
0.0 0.0 0.0
0.0 0.0 0.0
0.0 0.0 0.0
0.0 0.0 0.0
0.0 0.0 0.0
0.0 0.0 0.0
0.0 0.0 0.0
0.0 0.0 0.0
0.0 0.0 0.0
0.0 0.0 0.0
0.0 0.0 0.0
0.0 0.0 0.0
0.0 0.0 0.0
0.0 0.0 0.0
0.0 0.0 0.0
0.0 0.0 0.0
0.0 0.0 0.0
0.0 0.0 0.0
0.0 0.0 0.0
0.0 0.0 0.0
0.0 0.0 0.0
0.0 0.0 0.0
0.0 0.0 0.0
0.0 0.0 0.0
0.0 0.0 0.0
0.0 0.0 0.0
0.0 0.0 0.0
0.0 0.0 0.0
0.0 0.0 0.0
0.0 0.0 0.0
0.0 0.0 0.0
0.0 0.0 0.0
0.0 0.0 0.0
0.0 0.0 0.0
0.0 0.0 0.0
0.0 0.0 0.0
0.0 0.0 0.0
0.0 0.0 0.0
0.0 0.0 0.0
0.0 0.0 0.0
0.0 0.0 0.0
0.0 0.0 0.0
0.0 0.0 0.0
0.0 0.0 0.0
0.0 0.0 0.0
0.0 0.0 0.0
0.0 0.0 0.0
0.0 0.0 0.0
0.0 0.0 0.0
0.0 0.0 0.0
0.0 0.0 0.0
0.0 0.0 0.0
0.0 0.0 0.0
0.0 0.0 0.0
0.0 0.0 0.0
0.0 0.0 0.0
0.0 0.0 0.0
0.0 0.0 0.0
0.0 0.0 0.0
0.0 0.0 0.0
0.0 0.0 0.0
0.0 0.0 0.0
0.0 0.0 0.0
0.0 0.0 0.0
0.0 0.0 0.0
0.0 0.0 0.0
-0.118850544821 0.0211386004088 0.0
-0.200433936394 -0.0860823106202 0.0
-0.118730935378 0.140098317963 0.0
-0.0519750533995 -0.0334598944103 0.0
-0.0451952856941 0.0317861118921 0.0
-0.0717265192906 0.0718024197906 0.0
-0.0536941517671 0.0879169944597 0.0
-0.100844236083 -0.118751485701 0.0
-0.0548289235608 0.00110370606588 0.0
-0.0652401321069 -0.264547943064 0.0
-0.0950041023034 0.214602159341 0.0
-0.0165016557351 -0.0158597528542 0.0
-0.0159258499569 0.0144722457907 0.0
0.123001031133 0.0106359887678 0.0
-0.0529548250709 0.143446150166 0.0
0.011311667185 0.0955355065077 0.0
-0.147424058063 -0.241180829002 0.0
-0.0270630083833 -0.0549946345857 0.0
-0.0229283919699 0.0484007038794 0.0
-0.0365132023789 0.00824607057525 0.0
-0.0391604069429 -0.00812952055315 0.0
-0.173640083417 0.0221413265276 0.0
-0.118172646318 0.083108900574 0.0
-0.112383955129 -0.042800064397 0.0
-0.0770877345421 0.020627124537 0.0
-0.14117972503 0.084271970662 0.0
-0.156224031768 -0.0622891523766 0.0
-0.0800434674931 0.0489671533587 0.0
-0.0812187740269 -0.0051913893792 0.0
0.204412748403 0.0426951073811 0.0
-0.0200700075965 0.0650549168095 0.0
-0.0552931206646 -0.128070625876 0.0
-0.0346311104933 -0.000896893137816 0.0
0.339378424881 -0.0385894111988 0.0
-0.0452076586427 0.176613551544 0.0
-0.00878659804493 -0.0236880010987 0.0
-0.0191824271778 0.00546337452958 0.0
-0.133061436347 -0.36687934062 0.0
0.119767598116 0.0978153282588 0.0
-0.0204942560355 -0.00617778739264 0.0
-0.00886743241582 0.0228286742904 0.0
-0.178730397044 0.0248737597194 0.0
-0.105213491281 0.121673512714 0.0
-0.0834343295343 -0.0641713896349 0.0
-0.0617624938483 0.015925654036 0.0
-0.131929716176 0.107320516082 0.0
-0.203683911187 -0.140534359266 0.0
-0.0552113124978 0.0560379422009 0.0
-0.0618981625992 -0.0132289802859 0.0
0.0371353439687 -0.358538133453 0.0
-0.0803011805976 0.257932043004 0.0
-0.00335839566429 -0.00380571806959 0.0
-0.00334381065052 0.00361966972781 0.0
0.420896531106 0.0158347344296 0.0
-0.0159377833298 0.0854387516429 0.0
-0.0140480724571 -0.0572713520246 0.0
-0.0279068563736 0.0018988239758 0.0
-0.209625707829 -0.232113923517 0.0
-0.0996501140013 0.152931209342 0.0
-0.0375249928095 -0.0198754332016 0.0
-0.029019472652 0.0330499792506 0.0
-0.0685166414573 -0.0756127533421 0.0
-0.0963364516104 0.176867274938 0.0
-0.0317342072308 -0.0365370436391 0.0
-0.0341152879646 0.0182046629096 0.0
-0.154066187354 0.0469376958905 0.0
-0.160182919307 -0.00907869926238 0.0
-0.108287471548 0.0512916601332 0.0
-0.10751070416 -0.00851390388501 0.0
-0.201390309908 -0.0379259653719 0.0
-0.124842620526 0.109430264281 0.0
-0.078297119996 -0.0297138309066 0.0
-0.0608459386802 0.0357157504787 0.0
0.517822207735 0.000789488318479 0.0
-0.0154627340753 0.102334569317 0.0
-0.00587010004077 -0.0305091103012 0.0
-0.0197528258114 0.00222568992744 0.0
-0.0478454248112 -0.186899250583 0.0
-0.0226668200201 -0.00241645055543 0.0
0.364570107197 0.0382281266675 0.0
-0.00627952733079 0.0316545017939 0.0
0.349098155968 -0.100432484149 0.0
-0.0565519115053 0.225205444054 0.0
-0.00397020463132 -0.009437120075 0.0
-0.00844456941999 0.00367981239338 0.0
-0.109648632908 -0.474668430854 0.0
-0.0089405887921 -0.00410339172826 0.0
0.101039730599 0.129260305428 0.0
-0.00400393874055 0.00922463776646 0.0
-0.154882284724 0.0654493017183 0.0
-0.0830900485336 0.0783597712716 0.0
-0.11798181738 -0.0845023783217 0.0
-0.0646365719765 0.003679959207 0.0
0.048219208632 0.0444934375393 0.0
-0.0442900873218 0.109077667547 0.0
-0.0470570697633 -0.0902489680395 0.0
-0.0434302463125 0.00472158540614 0.0
-0.0469972513291 0.0845144558157 0.0
-0.025315181169 0.067431978324 0.0
-0.0768236442266 -0.169719441631 0.0
-0.0329911028389 -0.00501360841158 0.0
-0.0987153731696 0.0223084696866 0.0
-0.0914172270274 0.00669236907564 0.0
-0.0925307455825 -0.00756231152996 0.0
-0.103713287454 0.00677532146662 0.0
-0.000841306884856 -0.00199868644581 0.0
-0.000288674788088 -0.000709451961087 0.0
-0.00171724759398 0.0011184781323 0.0
-0.000318262375725 0.000688551866088 0.0
0.349732971075 -0.146450969064 0.0
0.0470694669081 -0.375137842877 0.0
-0.067363298594 0.269938419269 0.0
-0.0599448397968 0.28271873178 0.0
-0.0017402801683 -0.00119235633894 0.0
-0.000875579346503 0.00199412009459 0.0
-0.0680878075325 -0.505149789916 0.0
0.118858568631 0.15106752575 0.0
-0.0811930878592 0.00814324918086 0.0
-0.0875091319184 0.0216413790749 0.0
-0.151787370136 0.0765314681076 0.0
-0.137573965604 0.085715567888 0.0
-0.141128351665 0.095093983108 0.0
-0.146764814366 -0.0765702351879 0.0
-0.151807380728 -0.106145557061 0.0
-0.179489466707 -0.0902994996962 0.0
-0.0805503984884 0.0629786738924 0.0
-0.0668402484763 0.0690677346816 0.0
-0.0673435628279 0.0553692923579 0.0
-0.0732190127754 -0.000531945258702 0.0
-0.0653567254539 -0.00434381081448 0.0
-0.0705975928261 -0.0112037609918 0.0
-0.113876314536 0.0665146151806 0.0
-0.127616594626 0.0499311410272 0.0
-0.133369153998 0.0663506813967 0.0
-0.148881853496 0.0685701352429 0.0
-0.135100704145 0.0829298690378 0.0
-0.134406385876 -0.029185691923 0.0
-0.127920079705 -0.0097772987152 0.0
-0.11031283374 -0.024619394567 0.0
-0.138902144741 -0.051335287525 0.0
-0.162262004235 -0.0371804031275 0.0
-0.126434095283 0.0714978686742 0.0
-0.105612700551 0.0873913415557 0.0
-0.0689216814139 0.0855442389695 0.0
-0.0540976642102 0.0730990721125 0.0
-0.115874439205 -0.10174301579 0.0
-0.139869859937 -0.132202766719 0.0
-0.0615313685383 0.00239423587164 0.0
-0.0581969256178 -0.00417624982783 0.0
-0.0726226468622 0.139159945498 0.0
-0.0935647398261 0.150725903448 0.0
-0.0748984674208 0.163733666233 0.0
-0.0288307418474 0.0182408532627 0.0
-0.101458694138 -0.0178996500156 0.0
0.0248045505387 -0.0178571063398 0.0
-0.0450695108155 0.0121164324044 0.0
-0.0444092012898 0.0183145735107 0.0
-0.0363984723816 0.0128198419038 0.0
-0.0450130538607 -0.0627603820735 0.0
-0.0457580179637 -0.0495417553465 0.0
-0.0300557323256 -0.0463052336299 0.0
-0.110073314973 0.157260639393 0.0
-0.109533631326 0.136082748144 0.0
-0.161704440356 -0.0805531010307 0.0
-0.175027606223 -0.0293893530469 0.0
-0.0409548649806 0.0250900199572 0.0
-0.0510345598625 0.0248732527639 0.0
-0.0441707696188 -0.0369649925167 0.0
-0.0588554885107 -0.0448301818752 0.0
-0.196243419911 -0.259430298417 0.0
-0.214852101152 -0.188068762283 0.0
-0.181324476481 -0.203498268001 0.0
-0.0599452532916 0.124773382251 0.0
-0.108219920688 0.129724022711 0.0
-0.0754961697414 0.109822761625 0.0
-0.0392580021459 -0.0133483394697 0.0
-0.0483568972895 -0.0184111229437 0.0
-0.0477683337486 -0.0115674495525 0.0
-0.0262942231846 0.0411086727743 0.0
-0.038024978293 0.0436102163764 0.0
-0.0350008450195 0.0527880772349 0.0
-0.0906793238597 0.037165319034 0.0
-0.079883471157 0.0342930401697 0.0
0.586183295911 0.0138256982629 0.0
0.596543494538 0.0115140708462 0.0
-0.00398689890655 0.0331943878717 0.0
-0.00487989984957 0.042339699484 0.0
-0.0142703306177 -0.0841490458448 0.0
-0.0102811398594 -0.0621768159268 0.0
-0.0191016388703 -0.000536051678482 0.0
-0.019825088885 3.91096286255e-05 0.0
-0.0151076173761 -0.101168131277 0.0
-0.049604564168 -0.159364495485 0.0
-0.0160883894445 -0.000784957479834 0.0
-0.0284668734388 -0.00216923472023 0.0
0.629061044105 0.0129959955289 0.0
0.315463955381 0.0400559917909 0.0
-0.00245504519895 0.0226683896881 0.0
-0.00995663081111 0.0440375070155 0.0
-0.117195586814 -0.0635491223673 0.0
-0.0721189364877 0.0104342467215 0.0
-0.21756984081 -0.121391610264 0.0
-0.210190491096 -0.147890148253 0.0
-0.125549785537 0.127519640312 0.0
-0.117145434035 0.148762557641 0.0
-0.0569180247865 -0.0242114207625 0.0
-0.0457840584104 -0.0268273944763 0.0
-0.0480930027064 0.0413299836483 0.0
-0.038756210212 0.0335452543633 0.0
-0.136532192711 0.0971758794354 0.0
-0.12294572863 0.0982781767723 0.0
-0.0701604049338 0.0425238784335 0.0
-0.07013387438 0.0296299993586 0.0
-0.103201367767 0.0373227562562 0.0
-0.0928075303574 0.051589456424 0.0
-0.137088348148 0.0310997575717 0.0
-0.118589698975 0.0360576867255 0.0
-0.119059783738 0.00648572752244 0.0
-0.13799639343 0.00942118457437 0.0
-0.09272320797 -0.190726242082 0.0
-0.0968844762303 -0.233430596698 0.0
-0.0380131973522 -0.00408821723475 0.0
-0.0312387028234 -0.0047939458547 0.0
0.109294641504 0.0678137926362 0.0
0.161382244071 0.0680673059101 0.0
-0.019947418692 0.0559177944499 0.0
-0.0133598458184 0.0416605162379 0.0
0.674991112864 -0.00885726362122 0.0
0.641103626678 -0.020299224724 0.0
-0.0113668716681 0.101746545857 0.0
-0.0165116270629 0.129344916962 0.0
-0.00207314926757 -0.013792683923 0.0
-0.00189639979475 -0.0101210690448 0.0
-0.0114301385502 0.00132490061121 0.0
-0.00902311352529 0.00155190991573 0.0
-0.0492943855277 -0.295644084575 0.0
-0.0369877249722 -0.216736805092 0.0
-0.00980954885694 -0.00182133747758 0.0
-0.0125510525222 -0.00157925238809 0.0
0.447627980069 0.0396257039247 0.0
0.513700446662 0.0275023563695 0.0
-0.00203466178642 0.0103935852251 0.0
-0.00224706581267 0.0143355810508 0.0
0.345781899605 0.0259542620513 0.0
0.659894215942 0.00707965618643 0.0
-0.0162231850591 0.0754501139266 0.0
-0.00454785044597 0.0472872629711 0.0
-0.0240208940079 -0.0822601835598 0.0
-0.00555008375987 -0.0410734409259 0.0
-0.0315043775342 0.00100461941575 0.0
-0.0181731357966 0.000500141805256 0.0
-0.151195885125 -0.302215747601 0.0
-0.191624884982 -0.324356743718 0.0
0.0487200892846 0.101150706085 0.0
-0.0453905143114 0.142323391863 0.0
-0.030775415228 -0.00821206997347 0.0
-0.0294416209553 -0.0129491177997 0.0
-0.0156359815083 0.0357024259592 0.0
-0.0187263237072 0.0297884668257 0.0
-0.0137646961846 0.0575217605764 0.0
0.126063776564 0.0466128522159 0.0
0.0290705411077 0.0639509290233 0.0
-0.0500824741657 0.100080112667 0.0
-0.03158829256 0.0906611211902 0.0
-0.036474600046 0.0831643610167 0.0
-0.0709235973075 -0.104759757839 0.0
-0.0497728550011 -0.10622215694 0.0
-0.0793186702038 -0.131688133381 0.0
-0.0499165047176 0.0037084529116 0.0
-0.0418198695771 0.00167075961436 0.0
-0.04685225361 -0.000185794968369 0.0
-0.19020745578 -0.00174939545828 0.0
-0.190733192171 -0.00841870105244 0.0
-0.177347675921 0.0245273458663 0.0
-0.113722219072 0.115821245544 0.0
-0.105309313005 0.100705079459 0.0
-0.0925225397926 -0.0366584545192 0.0
-0.0760667413862 -0.0449254455723 0.0
-0.0931197156802 -0.0550654005378 0.0
-0.0606837564504 0.0260319298698 0.0
-0.0668167296503 0.0188880667972 0.0
0.119023828745 -0.118355242168 0.0
0.0874433633917 -0.0630394774977 0.0
-0.0550974435996 -0.153526812456 0.0
-0.0803422152023 0.215094233896 0.0
-0.0762356043995 0.189686525415 0.0
-0.0989495239911 0.199377595213 0.0
-0.0134569164767 -0.0216010353063 0.0
-0.0196010438834 -0.0322786064888 0.0
-0.0231288855678 -0.025537702099 0.0
-0.0191699782801 0.0100993418885 0.0
-0.0271592792517 0.0116537753971 0.0
-0.0248442203523 0.0170135912518 0.0
-0.208363762325 -0.0595785194751 0.0
-0.12399777594 0.124130424159 0.0
-0.065122592232 -0.0333264655981 0.0
-0.0550349444657 0.0341674580397 0.0
-0.174370552411 0.00708761186697 0.0
-0.182199769468 -0.0216412811527 0.0
-0.187331161118 -0.055429295978 0.0
-0.0928335830706 -0.02132677462 0.0
-0.0797519652159 -0.0171995244845 0.0
0.711199945557 0.0034369309292 0.0
-0.00438760786805 0.0521670414996 0.0
-0.00318880972968 -0.0280815520222 0.0
-0.0160789705945 0.000688227019551 0.0
-0.0469151305156 0.0805522551524 0.0
-0.078022563222 0.0956461727772 0.0
-0.11441705421 -0.148049808304 0.0
-0.151780129654 -0.16736200893 0.0
-0.0418609355769 0.0754155612415 0.0
-0.0415594046736 0.0642383643792 0.0
-0.051254448657 -0.00297459484118 0.0
-0.0521987293223 -0.00756468192759 0.0
0.353738681725 -0.0733764734436 0.0
0.62809026882 -0.0322546943696 0.0
-0.0514852727089 0.204296641255 0.0
-0.020774957715 0.152586097291 0.0
-0.00593475780085 -0.0149444862337 0.0
-0.00133980449231 -0.00621187367381 0.0
-0.012987438074 0.00477065490064 0.0
-0.00600852506946 0.0013194139831 0.0
-0.051549050872 -0.356065775812 0.0
-0.124930316191 -0.435003432605 0.0
-0.00646475372923 -0.00151084907712 0.0
-0.0138422100347 -0.0053994516679 0.0
0.419563572901 0.048719210131 0.0
0.107148706076 0.116647098851 0.0
-0.00142036493803 0.00634992463004 0.0
-0.00603730711288 0.0145089726058 0.0
-0.0515369758506 0.162421315961 0.0
0.210257711068 -0.0153014842113 0.0
-0.0285461310328 0.00769472154314 0.0
-0.0168388259823 -0.0386515500505 0.0
-0.165396806329 -0.262829965587 0.0
-0.164571837727 -0.377759472176 0.0
-0.0958153151831 0.18075377272 0.0
-0.0424898305828 0.164977586823 0.0
-0.0268091547422 -0.0189782985062 0.0
-0.0204434529569 -0.0113470503377 0.0
-0.0220137604105 0.023360343557 0.0
-0.013249357886 0.0202052099045 0.0
-0.0010740189201 -0.00372023726277 0.0
0.545940949016 -0.0601553823076 0.0
-0.00364168413666 0.00120563616686 0.0
-0.034358114935 0.198298604643 0.0
-0.0618324573681 -0.4401661464 0.0
-0.0038356035534 -0.00133390379357 0.0
0.314748391337 0.0767308286059 0.0
-0.00112314911584 0.00376516912358 0.0
0.200120972558 0.0320773097287 0.0
-0.0309559641017 0.102776884652 0.0
-0.031393540103 -0.0796212223293 0.0
-0.0377036837574 0.00328971093487 0.0
-0.0041905533292 -0.00698663144928 0.0
-0.00633816145843 0.0041616730559 0.0
0.212012486535 -0.191175667038 0.0
-0.0803322712702 0.25866388087 0.0
-0.0862991381255 -0.47036979733 0.0
-0.00655321327492 -0.00453162619625 0.0
-0.00911058674127 0.188987057924 0.0
-0.00421584941875 0.00673139780063 0.0
-0.16106710257 -0.159440828969 0.0
-0.109335007216 0.173697324852 0.0
-0.0343830083347 -0.0276042920389 0.0
-0.0313974033164 0.0249990188523 0.0
-0.151146570129 0.050239848135 0.0
-0.170428804554 0.0436442241702 0.0
-0.086644936383 0.0968185960245 0.0
-0.10028310085 0.0827224966031 0.0
-0.0988720194068 -0.0762985494823 0.0
-0.0636736018689 0.0102329094205 0.0
0.0397976358619 0.0714212363637 0.0
-0.0291646321085 0.0691343153991 0.0
-0.0141421847847 0.0890831958703 0.0
-0.0300409473724 0.05987947569 0.0
-0.0948342426855 -0.163270344449 0.0
-0.0442535154075 -0.00307098846598 0.0
-0.133568342699 -0.195800200391 0.0
-0.04504052327 -0.00662364865363 0.0
0.734703814867 -0.00202242843344 0.0
0.450959503258 -0.008488327223 0.0
-0.00632277118219 0.0726407045321 0.0
-0.0259003371501 0.133485190596 0.0
0.261893808385 0.0585286673609 0.0
0.321040364538 0.00445472430756 0.0
-0.0322577903043 0.130833535172 0.0
-0.0823389399143 -0.264240483186 0.0
-0.007398412752 0.0280090534974 0.0
-0.0226245362053 -0.00388563660336 0.0
0.609210794411 0.0161664002554 0.0
-0.020940790768 -0.139441961548 0.0
-0.00200352771796 0.0171128670804 0.0
-0.013989554006 -0.00102277997664 0.0
-0.00176662392253 -0.015903057311 0.0
-0.0073469939046 -0.0283505059282 0.0
-0.0123930939713 0.000844547061735 0.0
-0.0205982392411 0.00350589352258 0.0
-0.0140317945619 -0.0434737838831 0.0
-0.0282514940474 0.00471489387856 0.0
-0.100088665245 0.0563688195959 0.0
-0.0696779496402 0.103219239845 0.0
-0.0849479956237 -0.09058314854 0.0
-0.0567036431829 0.00723296871474 0.0
-0.161692577702 0.056250149011 0.0
-0.16799192672 0.03348072874 0.0
-0.0962292391227 0.0661111633489 0.0
0.140644339543 -0.173201363334 0.0
-0.08325009514 0.237667361556 0.0
-0.121083159878 -0.41652945689 0.0
-0.00885546847984 -0.0136223215244 0.0
-0.0407688827981 0.186249111259 0.0
-0.0123957428171 0.00775177265137 0.0
-0.01296980653 -0.00857796978822 0.0
-0.00877605628829 0.0128362300935 0.0
0.0768080131583 0.0312922514233 0.0
-0.040826897306 0.0431220490408 0.0
-0.0502302622441 0.124767907947 0.0
-0.0643155697715 0.118307287718 0.0
-0.0598570722749 -0.0814536664328 0.0
-0.0384513970895 -0.0726009235556 0.0
-0.0420297235931 0.00695109283049 0.0
-0.0499364101873 0.00858917833748 0.0
-0.133601403431 0.111065724978 0.0
-0.205973522248 -0.086635804791 0.0
-0.0591253948626 0.0450646154945 0.0
-0.0678340858198 -0.0214790377159 0.0
-0.00428218831864 -0.319088144834 0.0
-0.0864975068262 0.236792095877 0.0
-0.00876819503299 -0.00909569619201 0.0
-0.00857469026983 0.00844585954903 0.0
-0.156003727504 0.0200120568958 0.0
0.478849328513 0.00766811756802 0.0
0.747333519833 0.000716649712663 0.0
-0.0160619028867 0.0953150246029 0.0
-0.00449011260543 0.0577214792917 0.0
0.25157194988 0.0191694813533 0.0