# vtk DataFile Version 2.0
2D Simulation Python
ASCII
DATASET UNSTRUCTURED_GRID
FIELD FieldData 1
NODES 1 2 int
7905 15488

POINTS 7905 double
0.0 0.0 0.0
1.0 0.0 0.0
1.0 1.0 0.0
0.0 1.0 0.0
0.01249999999997639 0.0 0.0
0.02499999999995297 0.0 0.0
0.03749999999992721 0.0 0.0
0.04999999999989927 0.0 0.0
0.0624999999998716 0.0 0.0
0.07499999999985263 0.0 0.0
0.08749999999983366 0.0 0.0
0.09999999999981467 0.0 0.0
0.1124999999997956 0.0 0.0
0.1249999999997765 0.0 0.0
0.1374999999997401 0.0 0.0
0.1499999999997036 0.0 0.0
0.1624999999996672 0.0 0.0
0.1749999999996308 0.0 0.0
0.1874999999995943 0.0 0.0
0.1999999999995579 0.0 0.0
0.2124999999995214 0.0 0.0
0.224999999999485 0.0 0.0
0.2374999999994485 0.0 0.0
0.2499999999994121 0.0 0.0
0.2624999999993757 0.0 0.0
0.2749999999993393 0.0 0.0
0.2874999999993028 0.0 0.0
0.2999999999992664 0.0 0.0
0.3124999999992299 0.0 0.0
0.3249999999991935 0.0 0.0
0.3374999999991571 0.0 0.0
0.3499999999991207 0.0 0.0
0.3624999999990842 0.0 0.0
0.3749999999990478 0.0 0.0
0.3874999999990113 0.0 0.0
0.3999999999989749 0.0 0.0
0.4124999999989398 0.0 0.0
0.4249999999989048 0.0 0.0
0.4374999999988697 0.0 0.0
0.4499999999988346 0.0 0.0
0.4624999999987995 0.0 0.0
0.4749999999987644 0.0 0.0
0.4874999999987293 0.0 0.0
0.4999999999986943 0.0 0.0
0.5124999999987259 0.0 0.0
0.5249999999987575 0.0 0.0
0.5374999999987891 0.0 0.0
0.5499999999988205 0.0 0.0
0.5624999999988521 0.0 0.0
0.5749999999988837 0.0 0.0
0.5874999999989152 0.0 0.0
0.5999999999989468 0.0 0.0
0.6124999999989797 0.0 0.0
0.6249999999990127 0.0 0.0
0.6374999999990456 0.0 0.0
0.6499999999990784 0.0 0.0
0.6624999999991114 0.0 0.0
0.6749999999991443 0.0 0.0
0.6874999999991771 0.0 0.0
0.69999999999921 0.0 0.0
0.712499999999243 0.0 0.0
0.7249999999992759 0.0 0.0
0.7374999999993088 0.0 0.0
0.7499999999993416 0.0 0.0
0.7624999999993746 0.0 0.0
0.7749999999994075 0.0 0.0
0.7874999999994404 0.0 0.0
0.7999999999994734 0.0 0.0
0.8124999999995063 0.0 0.0
0.8249999999995392 0.0 0.0
0.8374999999995721 0.0 0.0
0.8499999999996051 0.0 0.0
0.862499999999638 0.0 0.0
0.8749999999996709 0.0 0.0
0.8874999999997039 0.0 0.0
0.8999999999997368 0.0 0.0
0.9124999999997697 0.0 0.0
0.9249999999998026 0.0 0.0
0.9374999999998355 0.0 0.0
0.9499999999998684 0.0 0.0
0.9624999999999013 0.0 0.0
0.9749999999999343 0.0 0.0
0.9874999999999672 0.0 0.0
1.0 0.01249999999997639 0.0
1.0 0.02499999999995297 0.0
1.0 0.03749999999992721 0.0
1.0 0.04999999999989927 0.0
1.0 0.0624999999998716 0.0
1.0 0.07499999999985263 0.0
1.0 0.08749999999983366 0.0
1.0 0.09999999999981467 0.0
1.0 0.1124999999997956 0.0
1.0 0.1249999999997765 0.0
1.0 0.1374999999997401 0.0
1.0 0.1499999999997036 0.0
1.0 0.1624999999996672 0.0
1.0 0.1749999999996308 0.0
1.0 0.1874999999995943 0.0
1.0 0.1999999999995579 0.0
1.0 0.2124999999995214 0.0
1.0 0.224999999999485 0.0
1.0 0.2374999999994485 0.0
1.0 0.2499999999994121 0.0
1.0 0.2624999999993757 0.0
1.0 0.2749999999993393 0.0
1.0 0.2874999999993028 0.0
1.0 0.2999999999992664 0.0
1.0 0.3124999999992299 0.0
1.0 0.3249999999991935 0.0
1.0 0.3374999999991571 0.0
1.0 0.3499999999991207 0.0
1.0 0.3624999999990842 0.0
1.0 0.3749999999990478 0.0
1.0 0.3874999999990113 0.0
1.0 0.3999999999989749 0.0
1.0 0.4124999999989398 0.0
1.0 0.4249999999989048 0.0
1.0 0.4374999999988697 0.0
1.0 0.4499999999988346 0.0
1.0 0.4624999999987995 0.0
1.0 0.4749999999987644 0.0
1.0 0.4874999999987293 0.0
1.0 0.4999999999986943 0.0
1.0 0.5124999999987259 0.0
1.0 0.5249999999987575 0.0
1.0 0.5374999999987891 0.0
1.0 0.5499999999988205 0.0
1.0 0.5624999999988521 0.0
1.0 0.5749999999988837 0.0
1.0 0.5874999999989152 0.0
1.0 0.5999999999989468 0.0
1.0 0.6124999999989797 0.0
1.0 0.6249999999990127 0.0
1.0 0.6374999999990456 0.0
1.0 0.6499999999990784 0.0
1.0 0.6624999999991114 0.0
1.0 0.6749999999991443 0.0
1.0 0.6874999999991771 0.0
1.0 0.69999999999921 0.0
1.0 0.712499999999243 0.0
1.0 0.7249999999992759 0.0
1.0 0.7374999999993088 0.0
1.0 0.7499999999993416 0.0
1.0 0.7624999999993746 0.0
1.0 0.7749999999994075 0.0
1.0 0.7874999999994404 0.0
1.0 0.7999999999994734 0.0
1.0 0.8124999999995063 0.0
1.0 0.8249999999995392 0.0
1.0 0.8374999999995721 0.0
1.0 0.8499999999996051 0.0
1.0 0.862499999999638 0.0
1.0 0.8749999999996709 0.0
1.0 0.8874999999997039 0.0
1.0 0.8999999999997368 0.0
1.0 0.9124999999997697 0.0
1.0 0.9249999999998026 0.0
1.0 0.9374999999998355 0.0
1.0 0.9499999999998684 0.0
1.0 0.9624999999999013 0.0
1.0 0.9749999999999343 0.0
1.0 0.9874999999999672 0.0
0.9874999999999439 1.0 0.0
0.9749999999998877 1.0 0.0
0.9624999999998541 1.0 0.0
0.9499999999998356 1.0 0.0
0.9374999999997805 1.0 0.0
0.9249999999996992 1.0 0.0
0.9124999999996414 1.0 0.0
0.8999999999995836 1.0 0.0
0.8874999999996454 1.0 0.0
0.8749999999997078 1.0 0.0
0.8624999999997771 1.0 0.0
0.8499999999998515 1.0 0.0
0.837499999999895 1.0 0.0
0.8249999999999216 1.0 0.0
0.8124999999999571 1.0 0.0
0.7999999999999998 1.0 0.0
0.7875000000000937 1.0 0.0
0.77500000000021 1.0 0.0
0.7625000000002968 1.0 0.0
0.7500000000003858 1.0 0.0
0.7375000000004739 1.0 0.0
0.7250000000005448 1.0 0.0
0.7125000000005861 1.0 0.0
0.7000000000006934 1.0 0.0
0.6875000000008109 1.0 0.0
0.6750000000009306 1.0 0.0
0.6625000000010091 1.0 0.0
0.6500000000010593 1.0 0.0
0.6375000000011386 1.0 0.0
0.6250000000012101 1.0 0.0
0.612500000001312 1.0 0.0
0.6000000000013869 1.0 0.0
0.5875000000014601 1.0 0.0
0.5750000000015277 1.0 0.0
0.5625000000016089 1.0 0.0
0.5500000000016854 1.0 0.0
0.5375000000017889 1.0 0.0
0.5250000000018821 1.0 0.0
0.5125000000019756 1.0 0.0
0.5000000000020587 1.0 0.0
0.4875000000020093 1.0 0.0
0.4750000000019601 1.0 0.0
0.4625000000019108 1.0 0.0
0.4500000000018616 1.0 0.0
0.4375000000018123 1.0 0.0
0.425000000001763 1.0 0.0
0.4125000000017136 1.0 0.0
0.4000000000016644 1.0 0.0
0.3875000000016123 1.0 0.0
0.3750000000015603 1.0 0.0
0.3625000000015083 1.0 0.0
0.3500000000014563 1.0 0.0
0.3375000000014042 1.0 0.0
0.3250000000013522 1.0 0.0
0.3125000000013003 1.0 0.0
0.3000000000012483 1.0 0.0
0.2875000000011962 1.0 0.0
0.2750000000011442 1.0 0.0
0.2625000000010922 1.0 0.0
0.2500000000010403 1.0 0.0
0.2375000000009883 1.0 0.0
0.2250000000009362 1.0 0.0
0.2125000000008842 1.0 0.0
0.2000000000008322 1.0 0.0
0.1875000000007802 1.0 0.0
0.1750000000007281 1.0 0.0
0.1625000000006761 1.0 0.0
0.1500000000006241 1.0 0.0
0.1375000000005721 1.0 0.0
0.12500000000052 1.0 0.0
0.112500000000468 1.0 0.0
0.100000000000416 1.0 0.0
0.08750000000036395 1.0 0.0
0.07500000000031193 1.0 0.0
0.06250000000026001 1.0 0.0
0.05000000000020799 1.0 0.0
0.03750000000015596 1.0 0.0
0.02500000000010394 1.0 0.0
0.01250000000005191 1.0 0.0
0.0 0.9874999999999439 0.0
0.0 0.9749999999998877 0.0
0.0 0.9624999999998541 0.0
0.0 0.9499999999998356 0.0
0.0 0.9374999999997805 0.0
0.0 0.9249999999996992 0.0
0.0 0.9124999999996414 0.0
0.0 0.8999999999995836 0.0
0.0 0.8874999999996454 0.0
0.0 0.8749999999997078 0.0
0.0 0.8624999999997771 0.0
0.0 0.8499999999998515 0.0
0.0 0.837499999999895 0.0
0.0 0.8249999999999216 0.0
0.0 0.8124999999999571 0.0
0.0 0.7999999999999998 0.0
0.0 0.7875000000000937 0.0
0.0 0.77500000000021 0.0
0.0 0.7625000000002968 0.0
0.0 0.7500000000003858 0.0
0.0 0.7375000000004739 0.0
0.0 0.7250000000005448 0.0
0.0 0.7125000000005861 0.0
0.0 0.7000000000006934 0.0
0.0 0.6875000000008109 0.0
0.0 0.6750000000009306 0.0
0.0 0.6625000000010091 0.0
0.0 0.6500000000010593 0.0
0.0 0.6375000000011386 0.0
0.0 0.6250000000012101 0.0
0.0 0.612500000001312 0.0
0.0 0.6000000000013869 0.0
0.0 0.5875000000014601 0.0
0.0 0.5750000000015277 0.0
0.0 0.5625000000016089 0.0
0.0 0.5500000000016854 0.0
0.0 0.5375000000017889 0.0
0.0 0.5250000000018821 0.0
0.0 0.5125000000019756 0.0
0.0 0.5000000000020587 0.0
0.0 0.4875000000020093 0.0
0.0 0.4750000000019601 0.0
0.0 0.4625000000019108 0.0
0.0 0.4500000000018616 0.0
0.0 0.4375000000018123 0.0
0.0 0.425000000001763 0.0
0.0 0.4125000000017136 0.0
0.0 0.4000000000016644 0.0
0.0 0.3875000000016123 0.0
0.0 0.3750000000015603 0.0
0.0 0.3625000000015083 0.0
0.0 0.3500000000014563 0.0
0.0 0.3375000000014042 0.0
0.0 0.3250000000013522 0.0
0.0 0.3125000000013003 0.0
0.0 0.3000000000012483 0.0
0.0 0.2875000000011962 0.0
0.0 0.2750000000011442 0.0
0.0 0.2625000000010922 0.0
0.0 0.2500000000010403 0.0
0.0 0.2375000000009883 0.0
0.0 0.2250000000009362 0.0
0.0 0.2125000000008842 0.0
0.0 0.2000000000008322 0.0
0.0 0.1875000000007802 0.0
0.0 0.1750000000007281 0.0
0.0 0.1625000000006761 0.0
0.0 0.1500000000006241 0.0
0.0 0.1375000000005721 0.0
0.0 0.12500000000052 0.0
0.0 0.112500000000468 0.0
0.0 0.100000000000416 0.0
0.0 0.08750000000036395 0.0
0.0 0.07500000000031193 0.0
0.0 0.06250000000026001 0.0
0.0 0.05000000000020799 0.0
0.0 0.03750000000015596 0.0
0.0 0.02500000000010394 0.0
0.0 0.01250000000005191 0.0
0.499547313951317 0.4984202829398231 0.0
0.7057142553715264 0.7049957919913439 0.0
0.2942617789825218 0.706558362574613 0.0
0.7052750732513358 0.29408370064617073 0.0
0.2941161372558304 0.29425664999463297 0.0
0.49473409022248005 0.7865288457870021 0.0
0.21400675843102512 0.49559804899934157 0.0
0.7879606576561358 0.5053778129282838 0.0
0.505369301426186 0.2119891966328729 0.0
0.8286074034533916 0.8287576993256224 0.0
0.17122528584787128 0.8286011816233976 0.0
0.8287577004551061 0.17139259539200086 0.0
0.17140751986106711 0.17123186221929698 0.0
0.6412438345717256 0.8516520873564006 0.0
0.14868333985619164 0.6419476520576217 0.0
0.36001439100831745 0.8471882363166383 0.0
0.8472916681795735 0.639858398754968 0.0
0.8516551147624887 0.3587551765143301 0.0
0.1529024464427883 0.36006180552290556 0.0
0.3587547979315107 0.148343271772372 0.0
0.6398585806283599 0.15270777331315408 0.0
0.5665851234669081 0.6415505082226679 0.0
0.3688065763014604 0.5781443560211958 0.0
0.6448511073779454 0.4469929790001165 0.0
0.43335085497228876 0.35323599965884955 0.0
0.42653529248703315 0.6555720715037009 0.0
0.6657620768186652 0.5502649260729648 0.0
0.3566111211511165 0.42874186251021185 0.0
0.5447859278293945 0.34262223816401394 0.0
0.4594948214297615 0.8920313032464312 0.0
[...]
POINT_DATA 7905
VECTORS vector double
0.0 0.0 0.0
0.0 0.0 0.0
0.0 0.0 0.0
0.0 0.0 0.0
0.0 0.0 0.0
0.0 0.0 0.0
0.0 0.0 0.0
0.0 0.0 0.0
0.0 0.0 0.0
0.0 0.0 0.0
0.0 0.0 0.0
0.0 0.0 0.0
0.0 0.0 0.0
0.0 0.0 0.0
0.0 0.0 0.0
0.0 0.0 0.0
0.0 0.0 0.0
0.0 0.0 0.0
0.0 0.0 0.0
0.0 0.0 0.0
0.0 0.0 0.0
0.0 0.0 0.0
0.0 0.0 0.0
0.0 0.0 0.0
0.0 0.0 0.0
0.0 0.0 0.0
0.0 0.0 0.0
0.0 0.0 0.0
0.0 0.0 0.0
0.0 0.0 0.0
0.0 0.0 0.0
0.0 0.0 0.0
0.0 0.0 0.0
0.0 0.0 0.0
0.0 0.0 0.0
0.0 0.0 0.0
0.0 0.0 0.0
0.0 0.0 0.0
0.0 0.0 0.0
0.0 0.0 0.0
0.0 0.0 0.0
0.0 0.0 0.0
0.0 0.0 0.0
0.0 0.0 0.0
0.0 0.0 0.0
0.0 0.0 0.0
0.0 0.0 0.0
0.0 0.0 0.0
0.0 0.0 0.0
0.0 0.0 0.0
0.0 0.0 0.0
0.0 0.0 0.0
0.0 0.0 0.0
0.0 0.0 0.0
0.0 0.0 0.0
0.0 0.0 0.0
0.0 0.0 0.0
0.0 0.0 0.0
0.0 0.0 0.0
0.0 0.0 0.0
0.0 0.0 0.0
0.0 0.0 0.0
0.0 0.0 0.0
0.0 0.0 0.0
0.0 0.0 0.0
0.0 0.0 0.0
0.0 0.0 0.0
0.0 0.0 0.0
0.0 0.0 0.0
0.0 0.0 0.0
0.0 0.0 0.0
0.0 0.0 0.0
0.0 0.0 0.0
0.0 0.0 0.0
0.0 0.0 0.0
0.0 0.0 0.0
0.0 0.0 0.0
0.0 0.0 0.0
0.0 0.0 0.0
0.0 0.0 0.0
0.0 0.0 0.0
0.0 0.0 0.0
0.0 0.0 0.0
0.0 0.0 0.0
0.0 0.0 0.0
0.0 0.0 0.0
0.0 0.0 0.0
0.0 0.0 0.0
0.0 0.0 0.0
0.0 0.0 0.0
0.0 0.0 0.0
0.0 0.0 0.0
0.0 0.0 0.0
0.0 0.0 0.0
0.0 0.0 0.0
0.0 0.0 0.0
0.0 0.0 0.0
0.0 0.0 0.0
0.0 0.0 0.0
0.0 0.0 0.0
0.0 0.0 0.0
0.0 0.0 0.0
0.0 0.0 0.0
0.0 0.0 0.0
0.0 0.0 0.0
0.0 0.0 0.0
0.0 0.0 0.0
0.0 0.0 0.0
0.0 0.0 0.0
0.0 0.0 0.0
0.0 0.0 0.0
0.0 0.0 0.0
0.0 0.0 0.0
0.0 0.0 0.0
0.0 0.0 0.0
0.0 0.0 0.0
0.0 0.0 0.0
0.0 0.0 0.0
0.0 0.0 0.0
0.0 0.0 0.0
0.0 0.0 0.0
0.0 0.0 0.0
0.0 0.0 0.0
0.0 0.0 0.0
0.0 0.0 0.0
0.0 0.0 0.0
0.0 0.0 0.0
0.0 0.0 0.0
0.0 0.0 0.0
0.0 0.0 0.0
0.0 0.0 0.0
0.0 0.0 0.0
0.0 0.0 0.0
0.0 0.0 0.0
0.0 0.0 0.0
0.0 0.0 0.0
0.0 0.0 0.0
0.0 0.0 0.0
0.0 0.0 0.0
0.0 0.0 0.0
0.0 0.0 0.0
0.0 0.0 0.0
0.0 0.0 0.0
0.0 0.0 0.0
0.0 0.0 0.0
0.0 0.0 0.0
0.0 0.0 0.0
0.0 0.0 0.0
0.0 0.0 0.0
0.0 0.0 0.0
0.0 0.0 0.0
0.0 0.0 0.0
0.0 0.0 0.0
0.0 0.0 0.0
0.0 0.0 0.0
0.0 0.0 0.0
0.0 0.0 0.0
0.0 0.0 0.0
0.0 0.0 0.0
0.0 0.0 0.0
0.0 0.0 0.0
0.0 0.0 0.0
1.0 0.0 0.0
1.0 0.0 0.0
1.0 0.0 0.0
1.0 0.0 0.0
1.0 0.0 0.0
1.0 0.0 0.0
1.0 0.0 0.0
1.0 0.0 0.0
1.0 0.0 0.0
1.0 0.0 0.0
1.0 0.0 0.0
1.0 0.0 0.0
1.0 0.0 0.0
1.0 0.0 0.0
1.0 0.0 0.0
1.0 0.0 0.0
1.0 0.0 0.0
1.0 0.0 0.0
1.0 0.0 0.0
1.0 0.0 0.0
1.0 0.0 0.0
1.0 0.0 0.0
1.0 0.0 0.0
1.0 0.0 0.0
1.0 0.0 0.0
1.0 0.0 0.0
1.0 0.0 0.0
1.0 0.0 0.0
1.0 0.0 0.0
1.0 0.0 0.0
1.0 0.0 0.0
1.0 0.0 0.0
1.0 0.0 0.0
1.0 0.0 0.0
1.0 0.0 0.0
1.0 0.0 0.0
1.0 0.0 0.0
1.0 0.0 0.0
1.0 0.0 0.0
1.0 0.0 0.0
1.0 0.0 0.0
1.0 0.0 0.0
1.0 0.0 0.0
1.0 0.0 0.0
1.0 0.0 0.0
1.0 0.0 0.0
1.0 0.0 0.0
1.0 0.0 0.0
1.0 0.0 0.0
1.0 0.0 0.0
1.0 0.0 0.0
1.0 0.0 0.0
1.0 0.0 0.0
1.0 0.0 0.0
1.0 0.0 0.0
1.0 0.0 0.0
1.0 0.0 0.0
1.0 0.0 0.0
1.0 0.0 0.0
1.0 0.0 0.0
1.0 0.0 0.0
1.0 0.0 0.0
1.0 0.0 0.0
1.0 0.0 0.0
1.0 0.0 0.0
1.0 0.0 0.0
1.0 0.0 0.0
1.0 0.0 0.0
1.0 0.0 0.0
1.0 0.0 0.0
1.0 0.0 0.0
1.0 0.0 0.0
1.0 0.0 0.0
1.0 0.0 0.0
1.0 0.0 0.0
1.0 0.0 0.0
1.0 0.0 0.0
1.0 0.0 0.0
1.0 0.0 0.0
0.0 0.0 0.0
0.0 0.0 0.0
0.0 0.0 0.0
0.0 0.0 0.0
0.0 0.0 0.0
0.0 0.0 0.0
0.0 0.0 0.0
0.0 0.0 0.0
0.0 0.0 0.0
0.0 0.0 0.0
0.0 0.0 0.0
0.0 0.0 0.0
0.0 0.0 0.0
0.0 0.0 0.0
0.0 0.0 0.0
0.0 0.0 0.0
0.0 0.0 0.0
0.0 0.0 0.0
0.0 0.0 0.0
0.0 0.0 0.0
0.0 0.0 0.0
0.0 0.0 0.0
0.0 0.0 0.0
0.0 0.0 0.0
0.0 0.0 0.0
0.0 0.0 0.0
0.0 0.0 0.0
0.0 0.0 0.0
0.0 0.0 0.0
0.0 0.0 0.0
0.0 0.0 0.0
0.0 0.0 0.0
0.0 0.0 0.0
0.0 0.0 0.0
0.0 0.0 0.0
0.0 0.0 0.0
0.0 0.0 0.0
0.0 0.0 0.0
0.0 0.0 0.0
0.0 0.0 0.0
0.0 0.0 0.0
0.0 0.0 0.0
0.0 0.0 0.0
0.0 0.0 0.0
0.0 0.0 0.0
0.0 0.0 0.0
0.0 0.0 0.0
0.0 0.0 0.0
0.0 0.0 0.0
0.0 0.0 0.0
0.0 0.0 0.0
0.0 0.0 0.0
0.0 0.0 0.0
0.0 0.0 0.0
0.0 0.0 0.0
0.0 0.0 0.0
0.0 0.0 0.0
0.0 0.0 0.0
0.0 0.0 0.0
0.0 0.0 0.0
0.0 0.0 0.0
0.0 0.0 0.0
0.0 0.0 0.0
0.0 0.0 0.0
0.0 0.0 0.0
0.0 0.0 0.0
0.0 0.0 0.0
0.0 0.0 0.0
0.0 0.0 0.0
0.0 0.0 0.0
0.0 0.0 0.0
0.0 0.0 0.0
0.0 0.0 0.0
0.0 0.0 0.0
0.0 0.0 0.0
0.0 0.0 0.0
0.0 0.0 0.0
0.0 0.0 0.0
0.0 0.0 0.0
-0.213057204318 0.0575573017464 0.0
-0.107850317225 -0.158860714209 0.0
-0.0558560877067 0.23346660189 0.0
-0.118029175735 -0.0801186843336 0.0
-0.0970989358237 0.0693864377017 0.0
0.0830693998434 0.113003667133 0.0
-0.0753565496888 0.172618912589 0.0
-0.18821478382 -0.251976607317 0.0
-0.116278071024 -0.00165098932165 0.0
0.042483926824 -0.317454278785 0.0
-0.0569113074071 0.244442909175 0.0
-0.0230654526409 -0.024535275093 0.0
-0.029511816045 0.0267581949704 0.0
0.282702664153 -0.00756988557086 0.0
-0.0382143028752 0.217541805364 0.0
0.116726135816 0.14048130065 0.0
-0.168703002043 -0.403739003018 0.0
-0.0578988112799 -0.102825927488 0.0
-0.0427824254126 0.0937962482074 0.0
-0.071510258028 0.0171470300534 0.0
-0.0710671854374 -0.0213645833211 0.0
-0.14415409305 0.0373616962615 0.0
-0.129560813076 0.181967893565 0.0
-0.233195788595 -0.103543224065 0.0
-0.167873689481 0.0501837659904 0.0
-0.0958295862591 0.170756849407 0.0
-0.245416593493 -0.135112202951 0.0
-0.150176863621 0.116513902236 0.0
-0.185810529819 -0.0163562451198 0.0
0.388081863625 0.0643113327234 0.0
-0.0248546129093 0.117937134655 0.0
-0.0803332275897 -0.242112898771 0.0
-0.0805419437262 -0.0040345688572 0.0
0.450055622809 -0.0615159100971 0.0
-0.0279563625319 0.210363712009 0.0
-0.0134994070767 -0.0308036833199 0.0
-0.0358452347388 0.0106066795721 0.0
-0.108112419617 -0.49380899695 0.0
0.162530847288 0.117620096755 0.0
-0.0316969314978 -0.012495865942 0.0
-0.016760887698 0.0412080723939 0.0
0.0605043173507 0.0161351323154 0.0
-0.0664937176114 0.223888657687 0.0
-0.154510250805 -0.148119569551 0.0
-0.126319145094 0.0352574048064 0.0
0.00125848041591 0.185206036858 0.0
-0.220808900636 -0.267347153106 0.0
-0.0948932317748 0.120125486517 0.0
-0.131401434666 -0.0374851386103 0.0
0.0746050982116 -0.371241991037 0.0
-0.080841788163 0.255555974626 0.0
-0.00224276171242 -0.00349707215541 0.0
-0.0054308549269 0.00597506607455 0.0
0.540154406045 0.0172861301987 0.0
-0.0147121932697 0.135807056211 0.0
-0.0304369688791 -0.0999661526609 0.0
-0.0536758916312 0.00369968414305 0.0
-0.132144469694 -0.342031917343 0.0
-0.0160255002142 0.215926303129 0.0
-0.068962900314 -0.0441615952674 0.0
-0.0578143863241 0.0662968106389 0.0
0.0822737999919 -0.130637870065 0.0
-0.0506725598863 0.251087357783 0.0
-0.0621010606487 -0.0712721156907 0.0
-0.0678813470973 0.0375137280762 0.0
-0.164248950405 0.108666741334 0.0
-0.228782086936 -0.0169396240535 0.0
-0.173200280622 0.125838836227 0.0
-0.225505123518 -0.0194404059984 0.0
-0.1787638247 -0.0835694043481 0.0
-0.0845549612887 0.210913713838 0.0
-0.180910619716 -0.0773320642441 0.0
-0.132481053601 0.0830294394639 0.0
0.631931234048 -0.00729895452589 0.0
-0.0108894937145 0.139219093372 0.0
-0.0115828654956 -0.0428486035625 0.0
-0.0380740618423 0.00453491975495 0.0
-0.0635402864223 -0.305950134412 0.0
-0.0386234818986 -0.00625635879229 0.0
0.42525453428 0.0528043934098 0.0
-0.0118342409598 0.0577067707409 0.0
0.413463640428 -0.112401494184 0.0
-0.0477546656363 0.230224484458 0.0
-0.00363430378045 -0.00855179387903 0.0
-0.0144381469555 0.00657018741017 0.0
-0.076176290825 -0.539940380696 0.0
-0.00919089743376 -0.00594895714301 0.0
0.107054061734 0.134829560533 0.0
-0.00698002574504 0.0153882910722 0.0
-0.0574951064542 0.11777596419 0.0
-0.120529705883 0.170863808103 0.0
-0.233534166828 -0.190191807064 0.0
-0.152230462218 0.00499456668737 0.0
0.221414910875 0.0564047740751 0.0
-0.0483018215351 0.190681624769 0.0
-0.106576220721 -0.185403383674 0.0
-0.0897596750189 0.00867222296591 0.0
0.103658266125 0.13511162955 0.0
-0.0592158482618 0.133224031923 0.0
-0.186520898684 -0.326967525192 0.0
-0.0946044320459 -0.0162843693609 0.0
-0.198557142086 0.0584510599457 0.0
-0.199756552805 0.0169520783678 0.0
-0.206911198672 -0.0202214771772 0.0
-0.214812372776 0.0196449624143 0.0
-0.000323086669487 -0.00097364918844 0.0
-0.000589634708133 -0.000430616051521 0.0
-0.00386597827597 0.00170805563883 0.0
-0.00114233197985 0.00095981355778 0.0
0.373649741236 -0.147223296604 0.0
0.0647979408464 -0.376719044375 0.0
-0.0682608438183 0.264111958663 0.0
-0.0622368595069 0.279407210482 0.0
-0.00217676238329 -0.00100082858241 0.0
-0.00142115667944 0.00298300813371 0.0
-0.0523052567965 -0.523302640326 0.0
0.113970509446 0.148850830423 0.0
-0.181761484831 0.0187056269973 0.0
-0.184814739045 0.0547723038528 0.0
-0.0798981515561 0.149229496299 0.0
-0.0255062640316 0.154256543295 0.0
-0.0575745169751 0.179639616858 0.0
-0.246498462327 -0.16919549984 0.0
-0.238883052317 -0.224418203961 0.0
-0.238812852421 -0.186706108762 0.0
-0.135650677583 0.144107667419 0.0
-0.110915866886 0.150065137903 0.0
-0.124651982688 0.125378664521 0.0
-0.167380405302 -0.00541369618586 0.0
-0.146901913477 -0.0159511810501 0.0
-0.161425028154 -0.033079130168 0.0
-0.153595417466 0.155192572115 0.0
-0.176611434771 0.121899743985 0.0
-0.149136817607 0.151763658317 0.0
-0.12552527636 0.146991823052 0.0
-0.119294822864 0.177019567236 0.0
-0.244798547899 -0.0666229095187 0.0
-0.236833070549 -0.0193339266067 0.0
-0.231535116598 -0.059989546339 0.0
-0.247878517256 -0.1173536358 0.0
-0.241288355991 -0.0815555252669 0.0
0.00903338806022 0.118538516546 0.0
0.0311546553949 0.147451340696 0.0
-0.0974359222286 0.17647258713 0.0
-0.0882034588162 0.15119599872 0.0
-0.216791860657 -0.223471064042 0.0
-0.221577346889 -0.271042900801 0.0
-0.1359471129 0.00137144784537 0.0
-0.125938306995 -0.0153652119829 0.0
-0.0556645814721 0.229414316554 0.0
-0.0587669436584 0.242723651074 0.0
-0.0464075521807 0.240613158935 0.0
0.140919785088 0.000259128290692 0.0
0.0570291122636 -0.0578610177836 0.0
0.185690556898 -0.0536471565705 0.0
-0.0925045476461 0.0258008986372 0.0
-0.0918177574274 0.0394668057713 0.0
-0.072084832826 0.0267307542204 0.0
-0.0996826542622 -0.131713154851 0.0
-0.0997815608304 -0.106870567643 0.0
-0.0619763348903 -0.0883363440043 0.0
-0.0538635602221 0.244459272552 0.0
-0.0685064162998 0.236006043323 0.0
-0.0276292578241 -0.145274876352 0.0
-0.0498520523545 -0.0746250742648 0.0
-0.0844020931441 0.0534253167579 0.0
-0.108111515829 0.0552940172319 0.0
-0.0930330024907 -0.0815054222583 0.0
-0.132609122758 -0.105496546827 0.0
-0.175538303969 -0.403817017881 0.0
-0.185773822019 -0.313289163316 0.0
-0.202822113102 -0.355501046279 0.0
0.0378480743205 0.179623072489 0.0
-0.00586994336593 0.203762061219 0.0
0.0435881117994 0.172538745877 0.0
-0.0715569735254 -0.0322026475336 0.0
-0.0979111385238 -0.0462520995564 0.0
-0.0948077281308 -0.0312216092976 0.0
-0.0512113887642 0.0812620945865 0.0
-0.075107383863 0.0906086454141 0.0
-0.0658166265596 0.106997575973 0.0
-0.175837459255 0.0928964693096 0.0
-0.163473972279 0.0840057949719 0.0
0.657277883161 0.0201168265158 0.0
0.684433127445 0.0161141497895 0.0
-0.00615302615999 0.0590220646395 0.0
-0.00628726729127 0.0728765381491 0.0
-0.0232885719319 -0.148425442996 0.0
-0.0190120689922 -0.109957706853 0.0
-0.0404559881114 -0.00171263028947 0.0
-0.0436251469208 -0.000382669907071 0.0
-0.0213221817597 -0.16987023558 0.0
-0.0723635150181 -0.28025196271 0.0
-0.0318525030383 -0.00200245118385 0.0
-0.0510823758957 -0.00635446187406 0.0
0.673387123088 0.0177953287147 0.0
0.397346189097 0.058797654636 0.0
-0.00431286514191 0.0404375755103 0.0
-0.0169787668506 0.0807521479638 0.0
-0.233798351612 -0.148840264595 0.0
-0.162130041224 0.0231862951364 0.0
-0.177003153533 -0.218508418733 0.0
-0.120267358998 -0.240729466884 0.0
-0.0400240424863 0.216427367182 0.0
-0.037904884869 0.22993275993 0.0
-0.124400382868 -0.0617859333437 0.0
-0.0937547396031 -0.0624368748678 0.0
-0.0974192159173 0.089934777555 0.0
-0.0790980074319 0.0705345125761 0.0
-0.0887456429734 0.193108634484 0.0
-0.105609123683 0.201183345606 0.0
-0.140781567231 0.100039318457 0.0
-0.149606349121 0.07078147029 0.0
-0.187711874904 0.0950479629326 0.0
-0.162263287589 0.124790088304 0.0
-0.198688217835 0.0794510525342 0.0
-0.195733363027 0.0927036246496 0.0
-0.224875457742 0.0211421241755 0.0
-0.222478375358 0.0286520669199 0.0
-0.132078204166 -0.343521675957 0.0
-0.117179926666 -0.385280046178 0.0
-0.0696670897448 -0.0121295027737 0.0
-0.0533876696445 -0.0125050929604 0.0
0.220486768335 0.102123811539 0.0
0.24177508682 0.0962395544153 0.0
-0.0343485208533 0.105664721072 0.0
-0.0246698674976 0.0779544613283 0.0
0.73556645887 -0.0150958795076 0.0
0.690650246908 -0.0266113167904 0.0
-0.00766060340782 0.117273334713 0.0
-0.0119261069315 0.137754269503 0.0
-0.00252215491727 -0.012992823674 0.0
-0.00200459626833 -0.00813606213532 0.0
-0.022989147121 0.0024184658863 0.0
-0.0179415179867 0.00275087647007 0.0
-0.0428581874604 -0.379003153046 0.0
-0.0367407873649 -0.306931629299 0.0
-0.0150545056337 -0.00314592281266 0.0
-0.0216230172869 -0.00316424339424 0.0
0.455523745911 0.0438804037031 0.0
0.533210821123 0.0327683818704 0.0
-0.00376431373828 0.0173538608402 0.0
-0.00426890151301 0.0248040622191 0.0
0.46874767138 0.0357900898631 0.0
0.744021865023 0.00863974004367 0.0
-0.0188496290814 0.128621132881 0.0
-0.00451880013945 0.0765009235293 0.0
-0.0484128678867 -0.153153051284 0.0
-0.0116424079021 -0.0680012081035 0.0
-0.0607559240352 0.00120447093592 0.0
-0.0391920967771 0.000779718441384 0.0
-0.144819507121 -0.454258192607 0.0
-0.137393744887 -0.447457316264 0.0
0.1235169965 0.135809664308 0.0
0.0245108815238 0.183817962434 0.0
-0.0507653896501 -0.0191819629028 0.0
-0.0476328703141 -0.0272833794724 0.0
-0.0300630808564 0.0674332120458 0.0
-0.0364759123148 0.0567886052816 0.0
0.150500661755 0.0821465257522 0.0
0.276582748188 0.0665424846296 0.0
0.181067917779 0.0978569062722 0.0
-0.0607297256178 0.185184897178 0.0
-0.0388628545389 0.161388256391 0.0
-0.0517558902903 0.156236254265 0.0
-0.145301789933 -0.221507984311 0.0
-0.0997412954387 -0.211869029428 0.0
-0.145355705953 -0.266112693309 0.0
-0.103047700166 0.00552896282663 0.0
-0.0819484707377 0.0015586760877 0.0
-0.0936175332164 -0.0039167161462 0.0
-0.157543382801 -0.0135081027544 0.0
-0.10152732297 -0.0352883533257 0.0
-0.0876883393669 0.0296352951908 0.0
-0.0872848686621 0.220855640354 0.0
-0.105880998485 0.205441819402 0.0
-0.208104935282 -0.092513887356 0.0
-0.174075980953 -0.110945524984 0.0
-0.204920398267 -0.13354738114 0.0
-0.130726693857 0.0600892827582 0.0
-0.14685859466 0.0439507392418 0.0
0.232933500774 -0.156062211474 0.0
0.227905237395 -0.104434610319 0.0
0.0774333949283 -0.211753383037 0.0
-0.0515496290987 0.250600695313 0.0
-0.0442453797905 0.246094771206 0.0
-0.0520284311289 0.252352274111 0.0
-0.0195855720729 -0.0308439216333 0.0
-0.0347133033378 -0.0534487935154 0.0
-0.0385823600818 -0.0446244006245 0.0
-0.0349340549106 0.0192173377063 0.0
-0.0515664516465 0.0232701479639 0.0
-0.0476038561353 0.0333272648328 0.0
-0.142121652039 -0.121464498498 0.0
-0.0679779312754 0.223739046241 0.0
-0.148609908111 -0.083898365031 0.0
-0.11551635355 0.0771018864999 0.0
-0.191014358069 0.0141909425435 0.0
-0.211001245169 -0.0481794939706 0.0
-0.22517233547 -0.117328966624 0.0
-0.209456625076 -0.0553800760694 0.0
-0.184191463546 -0.0472024282107 0.0
0.785150612138 0.00294638659547 0.0
-0.00323273189987 0.0773129104421 0.0
-0.0072376319221 -0.040400550583 0.0
-0.0334037284279 0.00121895228626 0.0
0.100016466845 0.129058401541 0.0
0.0555593835447 0.156312089007 0.0
-0.189533693856 -0.296865321082 0.0
-0.211157351858 -0.319503489841 0.0
-0.0666090946526 0.148727017573 0.0
-0.0732552176997 0.130606481886 0.0
-0.105731132282 -0.0116287638013 0.0
-0.108260451318 -0.0229971138944 0.0
0.429945405218 -0.0921569207814 0.0
0.659955052253 -0.0360063605185 0.0
-0.0378309292564 0.221144065923 0.0
-0.0174796268658 0.15265788955 0.0
-0.00707110224303 -0.0161820706419 0.0
-0.00108213229736 -0.00374272755348 0.0
-0.0228565162378 0.00884376844915 0.0
-0.0118234659488 0.00218633027842 0.0
-0.0419061341509 -0.418040517834 0.0
-0.0915570222914 -0.528147754754 0.0
-0.00884156481817 -0.0020986710135 0.0
-0.0169427205542 -0.0091665489805 0.0
0.418225487245 0.0505076440607 0.0
0.123333957808 0.128534371354 0.0
-0.00247310469471 0.0100110601566 0.0
-0.0110816530355 0.025143980136 0.0
-0.0323791172544 0.220242582968 0.0
0.350164686194 -0.0418342594192 0.0
-0.0540205154111 0.0156372197955 0.0
-0.0320789937291 -0.0631063880031 0.0
-0.0603761308904 -0.346973712324 0.0
-0.0939369944165 -0.469066749157 0.0
-0.0351181650236 0.228782927829 0.0
-3.71295657454e-05 0.192678591839 0.0
-0.0434423807228 -0.0361784132401 0.0
-0.0284547514865 -0.0203473207832 0.0
-0.0427197580372 0.0450731364568 0.0
-0.0250308515084 0.0370084876752 0.0
-0.00061000382363 -0.00173286701281 0.0
0.570284598898 -0.0618311118107 0.0
-0.00735101901686 0.00189562169188 0.0
-0.0327879205237 0.193453543024 0.0
-0.049039805697 -0.480262649596 0.0
-0.00482686629369 -0.00144873248944 0.0
0.3097105858 0.0765673768923 0.0
-0.00182963648491 0.00564485697839 0.0
0.349346274031 0.0388536647339 0.0
-0.0313562043454 0.171722379725 0.0
-0.0676450342176 -0.153458323029 0.0
-0.0732411365825 0.00608230298916 0.0
-0.00333849618702 -0.00637744393965 0.0
-0.0106044598489 0.00717759106562 0.0
0.262082603104 -0.202674483891 0.0
-0.0741134351967 0.259561092659 0.0
-0.0438067394474 -0.508226191111 0.0
-0.0058179680966 -0.00549306857088 0.0
-0.00739745651586 0.191636261733 0.0
-0.00699665114884 0.0111506210151 0.0
-0.0355960229644 -0.237106348467 0.0
-0.0445389244971 0.242877921917 0.0
-0.0644361558187 -0.0567182452695 0.0
-0.0627801789252 0.0507626047198 0.0
-0.0281718183644 0.0761717559567 0.0
-0.101341130486 0.0774032265266 0.0
-0.102096252572 0.197467297982 0.0
-0.127357578095 0.181119841461 0.0
-0.206971868082 -0.176775870331 0.0
-0.141234073131 0.0217124188691 0.0
0.175868846379 0.110940246132 0.0
-0.0470927259582 0.131945796806 0.0
0.112815377249 0.138591700481 0.0
-0.0533564614739 0.117442868555 0.0
-0.152837365823 -0.313579323932 0.0
-0.0858440847983 -0.010753279825 0.0
-0.181644043968 -0.357255227017 0.0
-0.0872090771388 -0.0193781368239 0.0
0.792928292484 -0.00604022418275 0.0
0.554963512336 -0.0229338037713 0.0
-0.00449216655235 0.0898712671886 0.0
-0.0168474689971 0.171376721412 0.0
0.309100375001 0.0760692669029 0.0
0.453269499365 -0.00920529808261 0.0
-0.0226014970695 0.186237650324 0.0
-0.0870724445588 -0.398929631276 0.0
-0.014074221996 0.0510140419594 0.0
-0.0360415116984 -0.00905077990703 0.0
0.638025682941 0.0206679848295 0.0
-0.024884187034 -0.217144482454 0.0
-0.00375202941899 0.0301300209822 0.0
-0.0259512482365 -0.00226313642373 0.0
-0.0024900045557 -0.0156534410309 0.0
-0.0126512293684 -0.038572652106 0.0
-0.0248452072266 0.00152677615581 0.0
-0.0383331377992 0.00699414640584 0.0
-0.0285780130084 -0.0710403236449 0.0
-0.0533592047177 0.00967474765274 0.0
0.0559217812772 0.0801039080937 0.0
-0.0810903130365 0.198863426372 0.0
-0.17792260261 -0.201828366527 0.0
-0.122299426835 0.0138993509207 0.0
-0.118816109489 0.114211437601 0.0
-0.158574551676 0.0704684999003 0.0
-0.146793900039 0.153312555535 0.0
0.225186488412 -0.200394391297 0.0
-0.0640275925963 0.254451611326 0.0
-0.0551519464131 -0.477490107231 0.0
-0.0101400231936 -0.0164661862709 0.0
-0.0208286871009 0.200744920919 0.0
-0.0215617690096 0.0140584532201 0.0
-0.0148248627072 -0.0128398853651 0.0
-0.0156835264592 0.0225215191698 0.0
0.243083201685 0.0285302993939 0.0
0.128071900136 0.0488999472108 0.0
-0.0444486068467 0.206103310287 0.0
-0.0632403097878 0.210838852573 0.0
-0.131664992185 -0.175978822919 0.0
-0.0849773042539 -0.145588756928 0.0
-0.0840296436308 0.0141755335269 0.0
-0.104244027804 0.0175545925082 0.0
-0.0585631262243 0.204556191043 0.0
-0.206811307808 -0.170978435849 0.0
-0.118180367713 0.101742608547 0.0
-0.154674949282 -0.0578135387978 0.0
0.0667769078124 -0.349912716404 0.0
-0.0724249948076 0.246356985778 0.0
-0.00884655863021 -0.0111966771336 0.0
-0.0146846186305 0.0147455626327 0.0
-0.19956143004 0.0496978205365 0.0
0.590013770363 0.00293239167719 0.0
0.809465036815 -0.00135194349768 0.0
-0.0122761149117 0.140115106398 0.0
-0.00304320392088 0.0771990315235 0.0
0.397060306931 0.0141197013052 0.0
-0.0268220076861 0.182466172252 0.0
-0.0192394232754 -0.0656042481441 0.0
-0.00408072147132 -0.0226924630561 0.0
-0.0461477458646 0.00468182165088 0.0