# vtk DataFile Version 2.0
2D Simulation Python
ASCII
DATASET UNSTRUCTURED_GRID
FIELD FieldData 1
NODES 1 2 int
7905 15488

POINTS 7905 double
0.0 0.0 0.0
1.0 0.0 0.0
1.0 1.0 0.0
0.0 1.0 0.0
0.01249999999997639 0.0 0.0
0.02499999999995297 0.0 0.0
0.03749999999992721 0.0 0.0
0.04999999999989927 0.0 0.0
0.0624999999998716 0.0 0.0
0.07499999999985263 0.0 0.0
0.08749999999983366 0.0 0.0
0.09999999999981467 0.0 0.0
0.1124999999997956 0.0 0.0
0.1249999999997765 0.0 0.0
0.1374999999997401 0.0 0.0
0.1499999999997036 0.0 0.0
0.1624999999996672 0.0 0.0
0.1749999999996308 0.0 0.0
0.1874999999995943 0.0 0.0
0.1999999999995579 0.0 0.0
0.2124999999995214 0.0 0.0
0.224999999999485 0.0 0.0
0.2374999999994485 0.0 0.0
0.2499999999994121 0.0 0.0
0.2624999999993757 0.0 0.0
0.2749999999993393 0.0 0.0
0.2874999999993028 0.0 0.0
0.2999999999992664 0.0 0.0
0.3124999999992299 0.0 0.0
0.3249999999991935 0.0 0.0
0.3374999999991571 0.0 0.0
0.3499999999991207 0.0 0.0
0.3624999999990842 0.0 0.0
0.3749999999990478 0.0 0.0
0.3874999999990113 0.0 0.0
0.3999999999989749 0.0 0.0
0.4124999999989398 0.0 0.0
0.4249999999989048 0.0 0.0
0.4374999999988697 0.0 0.0
0.4499999999988346 0.0 0.0
0.4624999999987995 0.0 0.0
0.4749999999987644 0.0 0.0
0.4874999999987293 0.0 0.0
0.4999999999986943 0.0 0.0
0.5124999999987259 0.0 0.0
0.5249999999987575 0.0 0.0
0.5374999999987891 0.0 0.0
0.5499999999988205 0.0 0.0
0.5624999999988521 0.0 0.0
0.5749999999988837 0.0 0.0
0.5874999999989152 0.0 0.0
0.5999999999989468 0.0 0.0
0.6124999999989797 0.0 0.0
0.6249999999990127 0.0 0.0
0.6374999999990456 0.0 0.0
0.6499999999990784 0.0 0.0
0.6624999999991114 0.0 0.0
0.6749999999991443 0.0 0.0
0.6874999999991771 0.0 0.0
0.69999999999921 0.0 0.0
0.712499999999243 0.0 0.0
0.7249999999992759 0.0 0.0
0.7374999999993088 0.0 0.0
0.7499999999993416 0.0 0.0
0.7624999999993746 0.0 0.0
0.7749999999994075 0.0 0.0
0.7874999999994404 0.0 0.0
0.7999999999994734 0.0 0.0
0.8124999999995063 0.0 0.0
0.8249999999995392 0.0 0.0
0.8374999999995721 0.0 0.0
0.8499999999996051 0.0 0.0
0.862499999999638 0.0 0.0
0.8749999999996709 0.0 0.0
0.8874999999997039 0.0 0.0
0.8999999999997368 0.0 0.0
0.9124999999997697 0.0 0.0
0.9249999999998026 0.0 0.0
0.9374999999998355 0.0 0.0
0.9499999999998684 0.0 0.0
0.9624999999999013 0.0 0.0
0.9749999999999343 0.0 0.0
0.9874999999999672 0.0 0.0
1.0 0.01249999999997639 0.0
1.0 0.02499999999995297 0.0
1.0 0.03749999999992721 0.0
1.0 0.04999999999989927 0.0
1.0 0.0624999999998716 0.0
1.0 0.07499999999985263 0.0
1.0 0.08749999999983366 0.0
1.0 0.09999999999981467 0.0
1.0 0.1124999999997956 0.0
1.0 0.1249999999997765 0.0
1.0 0.1374999999997401 0.0
1.0 0.1499999999997036 0.0
1.0 0.1624999999996672 0.0
1.0 0.1749999999996308 0.0
1.0 0.1874999999995943 0.0
1.0 0.1999999999995579 0.0
1.0 0.2124999999995214 0.0
1.0 0.224999999999485 0.0
1.0 0.2374999999994485 0.0
1.0 0.2499999999994121 0.0
1.0 0.2624999999993757 0.0
1.0 0.2749999999993393 0.0
1.0 0.2874999999993028 0.0
1.0 0.2999999999992664 0.0
1.0 0.3124999999992299 0.0
1.0 0.3249999999991935 0.0
1.0 0.3374999999991571 0.0
1.0 0.3499999999991207 0.0
1.0 0.3624999999990842 0.0
1.0 0.3749999999990478 0.0
1.0 0.3874999999990113 0.0
1.0 0.3999999999989749 0.0
1.0 0.4124999999989398 0.0
1.0 0.4249999999989048 0.0
1.0 0.4374999999988697 0.0
1.0 0.4499999999988346 0.0
1.0 0.4624999999987995 0.0
1.0 0.4749999999987644 0.0
1.0 0.4874999999987293 0.0
1.0 0.4999999999986943 0.0
1.0 0.5124999999987259 0.0
1.0 0.5249999999987575 0.0
1.0 0.5374999999987891 0.0
1.0 0.5499999999988205 0.0
1.0 0.5624999999988521 0.0
1.0 0.5749999999988837 0.0
1.0 0.5874999999989152 0.0
1.0 0.5999999999989468 0.0
1.0 0.6124999999989797 0.0
1.0 0.6249999999990127 0.0
1.0 0.6374999999990456 0.0
1.0 0.6499999999990784 0.0
1.0 0.6624999999991114 0.0
1.0 0.6749999999991443 0.0
1.0 0.6874999999991771 0.0
1.0 0.69999999999921 0.0
1.0 0.712499999999243 0.0
1.0 0.7249999999992759 0.0
1.0 0.7374999999993088 0.0
1.0 0.7499999999993416 0.0
1.0 0.7624999999993746 0.0
1.0 0.7749999999994075 0.0
1.0 0.7874999999994404 0.0
1.0 0.7999999999994734 0.0
1.0 0.8124999999995063 0.0
1.0 0.8249999999995392 0.0
1.0 0.8374999999995721 0.0
1.0 0.8499999999996051 0.0
1.0 0.862499999999638 0.0
1.0 0.8749999999996709 0.0
1.0 0.8874999999997039 0.0
1.0 0.8999999999997368 0.0
1.0 0.9124999999997697 0.0
1.0 0.9249999999998026 0.0
1.0 0.9374999999998355 0.0
1.0 0.9499999999998684 0.0
1.0 0.9624999999999013 0.0
1.0 0.9749999999999343 0.0
1.0 0.9874999999999672 0.0
0.9874999999999439 1.0 0.0
0.9749999999998877 1.0 0.0
0.9624999999998541 1.0 0.0
0.9499999999998356 1.0 0.0
0.9374999999997805 1.0 0.0
0.9249999999996992 1.0 0.0
0.9124999999996414 1.0 0.0
0.8999999999995836 1.0 0.0
0.8874999999996454 1.0 0.0
0.8749999999997078 1.0 0.0
0.8624999999997771 1.0 0.0
0.8499999999998515 1.0 0.0
0.837499999999895 1.0 0.0
0.8249999999999216 1.0 0.0
0.8124999999999571 1.0 0.0
0.7999999999999998 1.0 0.0
0.7875000000000937 1.0 0.0
0.77500000000021 1.0 0.0
0.7625000000002968 1.0 0.0
0.7500000000003858 1.0 0.0
0.7375000000004739 1.0 0.0
0.7250000000005448 1.0 0.0
0.7125000000005861 1.0 0.0
0.7000000000006934 1.0 0.0
0.6875000000008109 1.0 0.0
0.6750000000009306 1.0 0.0
0.6625000000010091 1.0 0.0
0.6500000000010593 1.0 0.0
0.6375000000011386 1.0 0.0
0.6250000000012101 1.0 0.0
0.612500000001312 1.0 0.0
0.6000000000013869 1.0 0.0
0.5875000000014601 1.0 0.0
0.5750000000015277 1.0 0.0
0.5625000000016089 1.0 0.0
0.5500000000016854 1.0 0.0
0.5375000000017889 1.0 0.0
0.5250000000018821 1.0 0.0
0.5125000000019756 1.0 0.0
0.5000000000020587 1.0 0.0
0.4875000000020093 1.0 0.0
0.4750000000019601 1.0 0.0
0.4625000000019108 1.0 0.0
0.4500000000018616 1.0 0.0
0.4375000000018123 1.0 0.0
0.425000000001763 1.0 0.0
0.4125000000017136 1.0 0.0
0.4000000000016644 1.0 0.0
0.3875000000016123 1.0 0.0
0.3750000000015603 1.0 0.0
0.3625000000015083 1.0 0.0
0.3500000000014563 1.0 0.0
0.3375000000014042 1.0 0.0
0.3250000000013522 1.0 0.0
0.3125000000013003 1.0 0.0
0.3000000000012483 1.0 0.0
0.2875000000011962 1.0 0.0
0.2750000000011442 1.0 0.0
0.2625000000010922 1.0 0.0
0.2500000000010403 1.0 0.0
0.2375000000009883 1.0 0.0
0.2250000000009362 1.0 0.0
0.2125000000008842 1.0 0.0
0.2000000000008322 1.0 0.0
0.1875000000007802 1.0 0.0
0.1750000000007281 1.0 0.0
0.1625000000006761 1.0 0.0
0.1500000000006241 1.0 0.0
0.1375000000005721 1.0 0.0
0.12500000000052 1.0 0.0
0.112500000000468 1.0 0.0
0.100000000000416 1.0 0.0
0.08750000000036395 1.0 0.0
0.07500000000031193 1.0 0.0
0.06250000000026001 1.0 0.0
0.05000000000020799 1.0 0.0
0.03750000000015596 1.0 0.0
0.02500000000010394 1.0 0.0
0.01250000000005191 1.0 0.0
0.0 0.9874999999999439 0.0
0.0 0.9749999999998877 0.0
0.0 0.9624999999998541 0.0
0.0 0.9499999999998356 0.0
0.0 0.9374999999997805 0.0
0.0 0.9249999999996992 0.0
0.0 0.9124999999996414 0.0
0.0 0.8999999999995836 0.0
0.0 0.8874999999996454 0.0
0.0 0.8749999999997078 0.0
0.0 0.8624999999997771 0.0
0.0 0.8499999999998515 0.0
0.0 0.837499999999895 0.0
0.0 0.8249999999999216 0.0
0.0 0.8124999999999571 0.0
0.0 0.7999999999999998 0.0
0.0 0.7875000000000937 0.0
0.0 0.77500000000021 0.0
0.0 0.7625000000002968 0.0
0.0 0.7500000000003858 0.0
0.0 0.7375000000004739 0.0
0.0 0.7250000000005448 0.0
0.0 0.7125000000005861 0.0
0.0 0.7000000000006934 0.0
0.0 0.6875000000008109 0.0
0.0 0.6750000000009306 0.0
0.0 0.6625000000010091 0.0
0.0 0.6500000000010593 0.0
0.0 0.6375000000011386 0.0
0.0 0.6250000000012101 0.0
0.0 0.612500000001312 0.0
0.0 0.6000000000013869 0.0
0.0 0.5875000000014601 0.0
0.0 0.5750000000015277 0.0
0.0 0.5625000000016089 0.0
0.0 0.5500000000016854 0.0
0.0 0.5375000000017889 0.0
0.0 0.5250000000018821 0.0
0.0 0.5125000000019756 0.0
0.0 0.5000000000020587 0.0
0.0 0.4875000000020093 0.0
0.0 0.4750000000019601 0.0
0.0 0.4625000000019108 0.0
0.0 0.4500000000018616 0.0
0.0 0.4375000000018123 0.0
0.0 0.425000000001763 0.0
0.0 0.4125000000017136 0.0
0.0 0.4000000000016644 0.0
0.0 0.3875000000016123 0.0
0.0 0.3750000000015603 0.0
0.0 0.3625000000015083 0.0
0.0 0.3500000000014563 0.0
0.0 0.3375000000014042 0.0
0.0 0.3250000000013522 0.0
0.0 0.3125000000013003 0.0
0.0 0.3000000000012483 0.0
0.0 0.2875000000011962 0.0
0.0 0.2750000000011442 0.0
0.0 0.2625000000010922 0.0
0.0 0.2500000000010403 0.0
0.0 0.2375000000009883 0.0
0.0 0.2250000000009362 0.0
0.0 0.2125000000008842 0.0
0.0 0.2000000000008322 0.0
0.0 0.1875000000007802 0.0
0.0 0.1750000000007281 0.0
0.0 0.1625000000006761 0.0
0.0 0.1500000000006241 0.0
0.0 0.1375000000005721 0.0
0.0 0.12500000000052 0.0
0.0 0.112500000000468 0.0
0.0 0.100000000000416 0.0
0.0 0.08750000000036395 0.0
0.0 0.07500000000031193 0.0
0.0 0.06250000000026001 0.0
0.0 0.05000000000020799 0.0
0.0 0.03750000000015596 0.0
0.0 0.02500000000010394 0.0
0.0 0.01250000000005191 0.0
0.499547313951317 0.4984202829398231 0.0
0.7057142553715264 0.7049957919913439 0.0
0.2942617789825218 0.706558362574613 0.0
0.7052750732513358 0.29408370064617073 0.0
0.2941161372558304 0.29425664999463297 0.0
0.49473409022248005 0.7865288457870021 0.0
0.21400675843102512 0.49559804899934157 0.0
0.7879606576561358 0.5053778129282838 0.0
0.505369301426186 0.2119891966328729 0.0
0.8286074034533916 0.8287576993256224 0.0
0.17122528584787128 0.8286011816233976 0.0
0.8287577004551061 0.17139259539200086 0.0
0.17140751986106711 0.17123186221929698 0.0
0.6412438345717256 0.8516520873564006 0.0
0.14868333985619164 0.6419476520576217 0.0
0.36001439100831745 0.8471882363166383 0.0
0.8472916681795735 0.639858398754968 0.0
0.8516551147624887 0.3587551765143301 0.0
0.1529024464427883 0.36006180552290556 0.0
0.3587547979315107 0.148343271772372 0.0
0.6398585806283599 0.15270777331315408 0.0
0.5665851234669081 0.6415505082226679 0.0
0.3688065763014604 0.5781443560211958 0.0
0.6448511073779454 0.4469929790001165 0.0
0.43335085497228876 0.35323599965884955 0.0
0.42653529248703315 0.6555720715037009 0.0
0.6657620768186652 0.5502649260729648 0.0
0.3566111211511165 0.42874186251021185 0.0
0.5447859278293945 0.34262223816401394 0.0
0.4594948214297615 0.8920313032464312 0.0
[...]
POINT_DATA 7905
VECTORS vector double
0.0 0.0 0.0
0.0 0.0 0.0
0.0 0.0 0.0
0.0 0.0 0.0
0.0 0.0 0.0
0.0 0.0 0.0
0.0 0.0 0.0
0.0 0.0 0.0
0.0 0.0 0.0
0.0 0.0 0.0
0.0 0.0 0.0
0.0 0.0 0.0
0.0 0.0 0.0
0.0 0.0 0.0
0.0 0.0 0.0
0.0 0.0 0.0
0.0 0.0 0.0
0.0 0.0 0.0
0.0 0.0 0.0
0.0 0.0 0.0
0.0 0.0 0.0
0.0 0.0 0.0
0.0 0.0 0.0
0.0 0.0 0.0
0.0 0.0 0.0
0.0 0.0 0.0
0.0 0.0 0.0
0.0 0.0 0.0
0.0 0.0 0.0
0.0 0.0 0.0
0.0 0.0 0.0
0.0 0.0 0.0
0.0 0.0 0.0
0.0 0.0 0.0
0.0 0.0 0.0
0.0 0.0 0.0
0.0 0.0 0.0
0.0 0.0 0.0
0.0 0.0 0.0
0.0 0.0 0.0
0.0 0.0 0.0
0.0 0.0 0.0
0.0 0.0 0.0
0.0 0.0 0.0
0.0 0.0 0.0
0.0 0.0 0.0
0.0 0.0 0.0
0.0 0.0 0.0
0.0 0.0 0.0
0.0 0.0 0.0
0.0 0.0 0.0
0.0 0.0 0.0
0.0 0.0 0.0
0.0 0.0 0.0
0.0 0.0 0.0
0.0 0.0 0.0
0.0 0.0 0.0
0.0 0.0 0.0
0.0 0.0 0.0
0.0 0.0 0.0
0.0 0.0 0.0
0.0 0.0 0.0
0.0 0.0 0.0
0.0 0.0 0.0
0.0 0.0 0.0
0.0 0.0 0.0
0.0 0.0 0.0
0.0 0.0 0.0
0.0 0.0 0.0
0.0 0.0 0.0
0.0 0.0 0.0
0.0 0.0 0.0
0.0 0.0 0.0
0.0 0.0 0.0
0.0 0.0 0.0
0.0 0.0 0.0
0.0 0.0 0.0
0.0 0.0 0.0
0.0 0.0 0.0
0.0 0.0 0.0
0.0 0.0 0.0
0.0 0.0 0.0
0.0 0.0 0.0
0.0 0.0 0.0
0.0 0.0 0.0
0.0 0.0 0.0
0.0 0.0 0.0
0.0 0.0 0.0
0.0 0.0 0.0
0.0 0.0 0.0
0.0 0.0 0.0
0.0 0.0 0.0
0.0 0.0 0.0
0.0 0.0 0.0
0.0 0.0 0.0
0.0 0.0 0.0
0.0 0.0 0.0
0.0 0.0 0.0
0.0 0.0 0.0
0.0 0.0 0.0
0.0 0.0 0.0
0.0 0.0 0.0
0.0 0.0 0.0
0.0 0.0 0.0
0.0 0.0 0.0
0.0 0.0 0.0
0.0 0.0 0.0
0.0 0.0 0.0
0.0 0.0 0.0
0.0 0.0 0.0
0.0 0.0 0.0
0.0 0.0 0.0
0.0 0.0 0.0
0.0 0.0 0.0
0.0 0.0 0.0
0.0 0.0 0.0
0.0 0.0 0.0
0.0 0.0 0.0
0.0 0.0 0.0
0.0 0.0 0.0
0.0 0.0 0.0
0.0 0.0 0.0
0.0 0.0 0.0
0.0 0.0 0.0
0.0 0.0 0.0
0.0 0.0 0.0
0.0 0.0 0.0
0.0 0.0 0.0
0.0 0.0 0.0
0.0 0.0 0.0
0.0 0.0 0.0
0.0 0.0 0.0
0.0 0.0 0.0
0.0 0.0 0.0
0.0 0.0 0.0
0.0 0.0 0.0
0.0 0.0 0.0
0.0 0.0 0.0
0.0 0.0 0.0
0.0 0.0 0.0
0.0 0.0 0.0
0.0 0.0 0.0
0.0 0.0 0.0
0.0 0.0 0.0
0.0 0.0 0.0
0.0 0.0 0.0
0.0 0.0 0.0
0.0 0.0 0.0
0.0 0.0 0.0
0.0 0.0 0.0
0.0 0.0 0.0
0.0 0.0 0.0
0.0 0.0 0.0
0.0 0.0 0.0
0.0 0.0 0.0
0.0 0.0 0.0
0.0 0.0 0.0
0.0 0.0 0.0
0.0 0.0 0.0
0.0 0.0 0.0
0.0 0.0 0.0
0.0 0.0 0.0
1.0 0.0 0.0
1.0 0.0 0.0
1.0 0.0 0.0
1.0 0.0 0.0
1.0 0.0 0.0
1.0 0.0 0.0
1.0 0.0 0.0
1.0 0.0 0.0
1.0 0.0 0.0
1.0 0.0 0.0
1.0 0.0 0.0
1.0 0.0 0.0
1.0 0.0 0.0
1.0 0.0 0.0
1.0 0.0 0.0
1.0 0.0 0.0
1.0 0.0 0.0
1.0 0.0 0.0
1.0 0.0 0.0
1.0 0.0 0.0
1.0 0.0 0.0
1.0 0.0 0.0
1.0 0.0 0.0
1.0 0.0 0.0
1.0 0.0 0.0
1.0 0.0 0.0
1.0 0.0 0.0
1.0 0.0 0.0
1.0 0.0 0.0
1.0 0.0 0.0
1.0 0.0 0.0
1.0 0.0 0.0
1.0 0.0 0.0
1.0 0.0 0.0
1.0 0.0 0.0
1.0 0.0 0.0
1.0 0.0 0.0
1.0 0.0 0.0
1.0 0.0 0.0
1.0 0.0 0.0
1.0 0.0 0.0
1.0 0.0 0.0
1.0 0.0 0.0
1.0 0.0 0.0
1.0 0.0 0.0
1.0 0.0 0.0
1.0 0.0 0.0
1.0 0.0 0.0
1.0 0.0 0.0
1.0 0.0 0.0
1.0 0.0 0.0
1.0 0.0 0.0
1.0 0.0 0.0
1.0 0.0 0.0
1.0 0.0 0.0
1.0 0.0 0.0
1.0 0.0 0.0
1.0 0.0 0.0
1.0 0.0 0.0
1.0 0.0 0.0
1.0 0.0 0.0
1.0 0.0 0.0
1.0 0.0 0.0
1.0 0.0 0.0
1.0 0.0 0.0
1.0 0.0 0.0
1.0 0.0 0.0
1.0 0.0 0.0
1.0 0.0 0.0
1.0 0.0 0.0
1.0 0.0 0.0
1.0 0.0 0.0
1.0 0.0 0.0
1.0 0.0 0.0
1.0 0.0 0.0
1.0 0.0 0.0
1.0 0.0 0.0
1.0 0.0 0.0
1.0 0.0 0.0
0.0 0.0 0.0
0.0 0.0 0.0
0.0 0.0 0.0
0.0 0.0 0.0
0.0 0.0 0.0
0.0 0.0 0.0
0.0 0.0 0.0
0.0 0.0 0.0
0.0 0.0 0.0
0.0 0.0 0.0
0.0 0.0 0.0
0.0 0.0 0.0
0.0 0.0 0.0
0.0 0.0 0.0
0.0 0.0 0.0
0.0 0.0 0.0
0.0 0.0 0.0
0.0 0.0 0.0
0.0 0.0 0.0
0.0 0.0 0.0
0.0 0.0 0.0
0.0 0.0 0.0
0.0 0.0 0.0
0.0 0.0 0.0
0.0 0.0 0.0
0.0 0.0 0.0
0.0 0.0 0.0
0.0 0.0 0.0
0.0 0.0 0.0
0.0 0.0 0.0
0.0 0.0 0.0
0.0 0.0 0.0
0.0 0.0 0.0
0.0 0.0 0.0
0.0 0.0 0.0
0.0 0.0 0.0
0.0 0.0 0.0
0.0 0.0 0.0
0.0 0.0 0.0
0.0 0.0 0.0
0.0 0.0 0.0
0.0 0.0 0.0
0.0 0.0 0.0
0.0 0.0 0.0
0.0 0.0 0.0
0.0 0.0 0.0
0.0 0.0 0.0
0.0 0.0 0.0
0.0 0.0 0.0
0.0 0.0 0.0
0.0 0.0 0.0
0.0 0.0 0.0
0.0 0.0 0.0
0.0 0.0 0.0
0.0 0.0 0.0
0.0 0.0 0.0
0.0 0.0 0.0
0.0 0.0 0.0
0.0 0.0 0.0
0.0 0.0 0.0
0.0 0.0 0.0
0.0 0.0 0.0
0.0 0.0 0.0
0.0 0.0 0.0
0.0 0.0 0.0
0.0 0.0 0.0
0.0 0.0 0.0
0.0 0.0 0.0
0.0 0.0 0.0
0.0 0.0 0.0
0.0 0.0 0.0
0.0 0.0 0.0
0.0 0.0 0.0
0.0 0.0 0.0
0.0 0.0 0.0
0.0 0.0 0.0
0.0 0.0 0.0
0.0 0.0 0.0
0.0 0.0 0.0
-0.170032989345 0.043757750257 0.0
-0.173022608983 -0.118465753001 0.0
-0.10126102771 0.18226690201 0.0
-0.0738959091559 -0.0486263512972 0.0
-0.0604327120293 0.0435363480573 0.0
-0.000822639658507 0.105166067462 0.0
-0.062430808533 0.11559166289 0.0
-0.151037825238 -0.175445725935 0.0
-0.0730138287205 0.000963045217254 0.0
0.00319037613504 -0.299869242937 0.0
-0.0786034458625 0.226207945222 0.0
-0.018078376855 -0.0185198456999 0.0
-0.0190270553892 0.0177705427899 0.0
0.217068846271 0.00658666877018 0.0
-0.049187792787 0.168088273963 0.0
0.0587818958174 0.120554545765 0.0
-0.171948306989 -0.328350268362 0.0
-0.0379338476738 -0.0703663881886 0.0
-0.0284730535543 0.060915895467 0.0
-0.04602527021 0.0112037556258 0.0
-0.0486474397754 -0.0121470414226 0.0
-0.187783364455 0.0464635533194 0.0
-0.132332984757 0.127856535328 0.0
-0.170944219655 -0.0621572516727 0.0
-0.10780801549 0.0321944231393 0.0
-0.139841798242 0.13418004956 0.0
-0.223316720906 -0.0872684801846 0.0
-0.106334647471 0.0736835410341 0.0
-0.118287425788 -0.00682868278099 0.0
0.335717657515 0.0578832329166 0.0
-0.0178794267639 0.0796924943452 0.0
-0.0636826898795 -0.178907477764 0.0
-0.0526357628961 -0.00164097967201 0.0
0.417469529049 -0.0523544252263 0.0
-0.0380728859822 0.187385808078 0.0
-0.0097327619618 -0.0249854591091 0.0
-0.0238995207908 0.00703543662366 0.0
-0.121964873858 -0.443774686776 0.0
0.142133257162 0.107007285354 0.0
-0.0248364814772 -0.00824974172099 0.0
-0.010497354995 0.0272186774152 0.0
-0.0235291042072 0.0350528542298 0.0
-0.0735970787487 0.160975780232 0.0
-0.0911023158611 -0.0941626506347 0.0
-0.0722163793717 0.0226154909605 0.0
-0.0681314459623 0.152168360317 0.0
-0.225713942394 -0.20082727888 0.0
-0.0628636853488 0.0763644036635 0.0
-0.0811874738983 -0.0203703202267 0.0
0.0635936571327 -0.367669773523 0.0
-0.0806879032184 0.256379294984 0.0
-0.0030454170235 -0.00370864504732 0.0
-0.0038301538707 0.00420794659411 0.0
0.493625756771 0.0196493722208 0.0
-0.0160353349354 0.0994401542997 0.0
-0.0205651153941 -0.0713342480037 0.0
-0.0359431357563 0.00263834504395 0.0
-0.179326164443 -0.295908486442 0.0
-0.0663734768556 0.182341484592 0.0
-0.0466201915847 -0.0275744862014 0.0
-0.0365587904995 0.0425108525577 0.0
0.0165763352373 -0.103801308146 0.0
-0.0806829439064 0.205842692373 0.0
-0.0407611528811 -0.0475196763307 0.0
-0.0428875795164 0.0240374934053 0.0
-0.173073497205 0.0863685563564 0.0
-0.207425270393 -0.000957748189021 0.0
-0.140579240084 0.0840413686416 0.0
-0.159526102458 -0.00749736321837 0.0
-0.216929384682 -0.048045827365 0.0
-0.121211585644 0.158145011807 0.0
-0.11663045833 -0.0447118745385 0.0
-0.0841668729602 0.0517071731877 0.0
0.595933318723 -0.00253257125098 0.0
-0.014392314276 0.112003330116 0.0
-0.00759981635228 -0.0322757876676 0.0
-0.0253728487013 0.00299242996546 0.0
-0.0603918173258 -0.248955662666 0.0
-0.0283108230314 -0.00359954795183 0.0
0.397441345071 0.0459717440919 0.0
-0.00776184400765 0.0379234595293 0.0
0.397238222732 -0.109272606457 0.0
-0.0532667437324 0.225984064136 0.0
-0.00369106185104 -0.00889612325652 0.0
-0.00997240590091 0.00447608395753 0.0
-0.0904687487079 -0.517241603664 0.0
-0.00921768685645 -0.00471615188503 0.0
0.104524259136 0.131208714664 0.0
-0.00456267210426 0.0105617849944 0.0
-0.124989186018 0.107252525207 0.0
-0.100022125294 0.112579127133 0.0
-0.184509414349 -0.125943601661 0.0
-0.09266246658 0.00536190941711 0.0
0.139809861973 0.0602784873737 0.0
-0.0478819214574 0.135185197335 0.0
-0.074448993852 -0.126601959853 0.0
-0.0566818384766 0.00640525515216 0.0
0.00403371008369 0.117052781813 0.0
-0.0376331587077 0.0869099532424 0.0
-0.140363614379 -0.244559831863 0.0
-0.0525298448282 -0.00805935711991 0.0
-0.139389864645 0.0391943182079 0.0
-0.132398707906 0.0134595667006 0.0
-0.137073185726 -0.00878669648195 0.0
-0.150673077686 0.016240682445 0.0
-0.000734950082425 -0.00153570288444 0.0
-0.000692613349825 -0.000364690673707 0.0
-0.00277228063471 0.00121145669853 0.0
-0.000811883573332 0.000514433660662 0.0
0.369860044459 -0.147346211872 0.0
0.0625133773607 -0.37341326757 0.0
-0.0676984905962 0.26694681207 0.0
-0.0608110408629 0.28090903481 0.0
-0.00242969841487 -0.00107685210095 0.0
-0.00102111467853 0.00206567818626 0.0
-0.0566668979045 -0.515687245653 0.0
0.116905669221 0.149784776382 0.0
-0.11618986338 0.0138753225438 0.0
-0.123281374585 0.0356852242658 0.0
-0.135469229101 0.12439537064 0.0
-0.0974634563211 0.131810574741 0.0
-0.116648210835 0.144703400996 0.0
-0.211827422611 -0.111875364065 0.0
-0.212929633297 -0.156463388721 0.0
-0.233382393265 -0.129602917798 0.0
-0.102616537767 0.0925881980046 0.0
-0.0831820816601 0.0967426550021 0.0
-0.0873833549035 0.0792703321028 0.0
-0.104514531378 -0.000554401375023 0.0
-0.0912193657129 -0.00699331714596 0.0
-0.100853675834 -0.0171309175842 0.0
-0.138134869648 0.106040967569 0.0
-0.159838409269 0.0868393264164 0.0
-0.153132805382 0.110469618257 0.0
-0.155635002476 0.115653511567 0.0
-0.141957840964 0.131516913689 0.0
-0.195893142708 -0.0369850823408 0.0
-0.185165866672 -0.00572289346953 0.0
-0.166153760733 -0.0331748836725 0.0
-0.20365549793 -0.0726435916002 0.0
-0.220904331779 -0.0469193588008 0.0
-0.071446764452 0.110087658307 0.0
-0.048760365822 0.128472684914 0.0
-0.0810821073291 0.117137098587 0.0
-0.0662693477982 0.098431840005 0.0
-0.174135358331 -0.151832272133 0.0
-0.196295050182 -0.194671892916 0.0
-0.0842992457159 0.00304218806151 0.0
-0.0788298173019 -0.00694014669598 0.0
-0.0689152882372 0.171450668314 0.0
-0.0834651801178 0.186451241626 0.0
-0.0660998109819 0.191454429515 0.0
0.0630454430809 0.0185212456728 0.0
-0.0189529888456 -0.0310066318763 0.0
0.118578670085 -0.0326027999672 0.0
-0.0581593476837 0.0166965441729 0.0
-0.057359542012 0.0250620643464 0.0
-0.0458578788908 0.0172044861269 0.0
-0.0656927755118 -0.0865825056196 0.0
-0.0642910058552 -0.0687035132421 0.0
-0.0403030748354 -0.059646989186 0.0
-0.0917148686814 0.19395482328 0.0
-0.0988983163656 0.178139500634 0.0
-0.0974516406065 -0.110997810278 0.0
-0.12274383491 -0.0426413150105 0.0
-0.0528449745354 0.0337907789474 0.0
-0.0674512419263 0.0347006446709 0.0
-0.0597828637673 -0.0514654379133 0.0
-0.0851374979903 -0.0652048408451 0.0
-0.200299714342 -0.34107535205 0.0
-0.219474011531 -0.254797944537 0.0
-0.211568667761 -0.282828583406 0.0
-0.0184085627558 0.15279762311 0.0
-0.0678378945671 0.167593823182 0.0
-0.0252105004193 0.145038144579 0.0
-0.0487430480496 -0.019229634141 0.0
-0.0633255753551 -0.0270930903629 0.0
-0.0618148691812 -0.0174824387785 0.0
-0.0329764641231 0.0523360878472 0.0
-0.0485347396269 0.0576163439152 0.0
-0.0440813944267 0.0687592834763 0.0
-0.124088906508 0.0594654511006 0.0
-0.109652780474 0.0528856292261 0.0
0.631908461259 0.0176262017121 0.0
0.655245963421 0.0148889236508 0.0
-0.00450861699181 0.039679687287 0.0
-0.00528446918356 0.0504160444688 0.0
-0.0193818937975 -0.112999846689 0.0
-0.0144087402596 -0.0814198636263 0.0
-0.0284947010776 -0.000880628401368 0.0
-0.0301007785766 -6.61896540785e-06 0.0
-0.0192394506164 -0.134737701616 0.0
-0.0649525034297 -0.218575755221 0.0
-0.0231070167944 -0.0011760031641 0.0
-0.0361431555627 -0.00340601394079 0.0
0.655748560928 0.0154988104313 0.0
0.358705965544 0.0512259999428 0.0
-0.00290581685442 0.0268101053576 0.0
-0.0118861238167 0.0534653291651 0.0
-0.178627712224 -0.0943325309063 0.0
-0.101449724461 0.0161038035707 0.0
-0.21963968913 -0.167644653349 0.0
-0.177292011598 -0.196714818419 0.0
-0.0961221555176 0.171802370043 0.0
-0.0885960780745 0.186225906711 0.0
-0.0786084059122 -0.0360706340692 0.0
-0.0605342941533 -0.0382192861633 0.0
-0.062772807191 0.0565290661112 0.0
-0.0499481556077 0.0446533323252 0.0
-0.128977949822 0.1474308264 0.0
-0.12623556591 0.146099869384 0.0
-0.0943306335325 0.062556441773 0.0
-0.0962877088638 0.0442721803542 0.0
-0.14069437316 0.0627704016236 0.0
-0.122224758936 0.080493706023 0.0
-0.178682936482 0.0612869960967 0.0
-0.159321632595 0.064693080052 0.0
-0.170998813253 0.0193144089351 0.0
-0.189548791855 0.0275744602323 0.0
-0.121290557958 -0.26666536488 0.0
-0.115300362513 -0.31421910517 0.0
-0.0475612986477 -0.00640660225917 0.0
-0.0382009379364 -0.00716759292188 0.0
0.163180881418 0.0888072967253 0.0
0.199709804223 0.0836536306944 0.0
-0.0241840202232 0.0695668129283 0.0
-0.0163895657905 0.0510316579684 0.0
0.721450514609 -0.0129521274029 0.0
0.680564784629 -0.0246356701282 0.0
-0.0096797345867 0.106117533453 0.0
-0.0145824060529 0.131391908646 0.0
-0.00230642109608 -0.0129032572056 0.0
-0.00189236899813 -0.00914521326509 0.0
-0.0158133655199 0.00166075681028 0.0
-0.0124531795781 0.00187990968211 0.0
-0.0465579830701 -0.34574115304 0.0
-0.0381855554869 -0.268029060508 0.0
-0.0127863853133 -0.00222959214065 0.0
-0.0171583576039 -0.00208008398129 0.0
0.45261376741 0.0412966859181 0.0
0.525355804267 0.0298751335876 0.0
-0.00239516516834 0.0117364484594 0.0
-0.00270017152076 0.0165034285694 0.0
0.417652195253 0.0347271547099 0.0
0.716562648831 0.00828255732361 0.0
-0.0173237096063 0.0903439070105 0.0
-0.00476985162006 0.0552398036744 0.0
-0.0355045332709 -0.109809478696 0.0
-0.00785265570086 -0.0504162087366 0.0
-0.0407860729674 0.0013123780874 0.0
-0.0267673868635 0.000695929194507 0.0
-0.157516864894 -0.389424437076 0.0
-0.169988165615 -0.399194419804 0.0
0.0824007611258 0.118766919006 0.0
-0.0156246935952 0.161734084498 0.0
-0.0368785105954 -0.0116779454764 0.0
-0.0346890303813 -0.01752080253 0.0
-0.0192916086636 0.0439302023704 0.0
-0.023076410285 0.0369431855772 0.0
0.0681664958374 0.0816853806146 0.0
0.206397335937 0.0643154301241 0.0
0.104323346563 0.0899363436205 0.0
-0.0553069733362 0.127692580047 0.0
-0.0346879736081 0.111884346972 0.0
-0.0421300785977 0.105367473351 0.0
-0.108835518399 -0.151895065594 0.0
-0.0752058341306 -0.149257086978 0.0
-0.117333063778 -0.190373557142 0.0
-0.0652468450714 0.00486491317853 0.0
-0.0534721071163 0.00204091900648 0.0
-0.0604697275708 -0.000857175470323 0.0
-0.200078589069 0.00827445953254 0.0
-0.165953835542 -0.00760618135866 0.0
-0.153132400424 0.0443557243894 0.0
-0.11078396063 0.161395425635 0.0
-0.112262035084 0.144158148516 0.0
-0.140993385823 -0.054495144325 0.0
-0.114269978396 -0.0672261713295 0.0
-0.14294170361 -0.0825548315844 0.0
-0.0821023969265 0.0375889100041 0.0
-0.091874386633 0.0280602759161 0.0
0.193311446577 -0.142449396795 0.0
0.175083620253 -0.0860322204198 0.0
0.0238766353765 -0.188748893881 0.0
-0.0695408324886 0.227746850497 0.0
-0.0649370296925 0.209975578982 0.0
-0.0813155998973 0.220162016406 0.0
-0.0147368085556 -0.0240867204947 0.0
-0.0236324572911 -0.0384179589992 0.0
-0.0271264260443 -0.0313771278169 0.0
-0.0229878298233 0.0127232923924 0.0
-0.033348246021 0.0151477007647 0.0
-0.0304231705809 0.0216883645396 0.0
-0.197272549838 -0.0817339089612 0.0
-0.109189778004 0.170552374104 0.0
-0.0943938638518 -0.0497519456179 0.0
-0.0734160622163 0.0481094644896 0.0
-0.206952658028 0.0254502200566 0.0
-0.222183950203 -0.020841557791 0.0
-0.232849441997 -0.0747112289591 0.0
-0.139798038915 -0.0305143767462 0.0
-0.117538788785 -0.0255932616678 0.0
0.761455079052 0.00359329967051 0.0
-0.00437118400303 0.0588224357488 0.0
-0.00430208556967 -0.0313083748272 0.0
-0.0227241056153 0.000926827419681 0.0
0.0195206326873 0.114318685996 0.0
-0.0213915049415 0.133411984823 0.0
-0.163700445008 -0.216198927258 0.0
-0.200017251306 -0.241124214242 0.0
-0.0506017670599 0.0980744131028 0.0
-0.0518918413276 0.0845593558859 0.0
-0.0673383467441 -0.00511406640676 0.0
-0.0690148192274 -0.0119174015483 0.0
0.407605748475 -0.0861519303966 0.0
0.654271997303 -0.0352736103179 0.0
-0.0463015435506 0.209364251746 0.0
-0.0194162702817 0.151632088496 0.0
-0.0059848038962 -0.0148522063295 0.0
-0.00121573019764 -0.00524555439675 0.0
-0.0155986636209 0.00595421055838 0.0
-0.0083122390733 0.00154836259307 0.0
-0.0460929657743 -0.39459140556 0.0
-0.107327310805 -0.494375935183 0.0
-0.00811941988111 -0.00169835724161 0.0
-0.0150084386006 -0.00666014656212 0.0
0.419441755187 0.0492593781907 0.0
0.113864332581 0.121605409894 0.0
-0.00162143945634 0.00695083594014 0.0
-0.00710797552875 0.0169369379639 0.0
-0.0453523711805 0.181555867663 0.0
0.298405993965 -0.0279365025713 0.0
-0.0353084504996 0.0102090793393 0.0
-0.0213190013089 -0.0454380916843 0.0
-0.109044692184 -0.315267440331 0.0
-0.126516443012 -0.436661487073 0.0
-0.0715668519007 0.201346645808 0.0
-0.0248824884779 0.176886492396 0.0
-0.0312804880135 -0.0244197270307 0.0
-0.0226461147044 -0.0142567113865 0.0
-0.0270421671515 0.0293198933389 0.0
-0.0159357513352 0.0244703616096 0.0
-0.000920526702685 -0.00295234915292 0.0
0.56628282019 -0.0619471038873 0.0
-0.00522803738525 0.00136921256 0.0
-0.0336946129569 0.195528564935 0.0
-0.053551886798 -0.465405869831 0.0
-0.00484661956726 -0.00136170865869 0.0
0.312730829203 0.0763934269613 0.0
-0.00125278778397 0.00400143277468 0.0
0.284429191745 0.0419738288872 0.0
-0.0320238026406 0.123568604884 0.0
-0.0474307220725 -0.106765829484 0.0
-0.0478902115541 0.00448966193582 0.0
-0.00378554602291 -0.00669942562315 0.0
-0.00740237043824 0.00497427305588 0.0
0.247814974129 -0.200049615138 0.0
-0.0779891623474 0.258113225435 0.0
-0.0587346838789 -0.496065948802 0.0
-0.0064039736465 -0.00487335517393 0.0
-0.00875033927699 0.189589745134 0.0
-0.00473752861536 0.00775871402726 0.0
-0.0966273351736 -0.203414287999 0.0
-0.0853683887228 0.203142477183 0.0
-0.0430463942274 -0.0368589686385 0.0
-0.039522292492 0.0325134225883 0.0
-0.104729841008 0.0805205593084 0.0
-0.158348810887 0.0775681325708 0.0
-0.0963945544057 0.134789289681 0.0
-0.116691502064 0.122588364567 0.0
-0.152461985901 -0.114274135952 0.0
-0.0874747309741 0.014930250873 0.0
0.104770897559 0.097836271096 0.0
-0.035077061518 0.0874174178622 0.0
0.0428182731103 0.119156001629 0.0
-0.0372276914853 0.0765430814243 0.0
-0.133103239827 -0.23394041495 0.0
-0.0564347718627 -0.0050941907566 0.0
-0.172703021356 -0.276852512204 0.0
-0.0574635346973 -0.01030492996 0.0
0.777050941925 -0.00422357017201 0.0
0.521028546929 -0.0161335328376 0.0
-0.00543337237692 0.0771277285004 0.0
-0.0228068981754 0.144508750349 0.0
0.284923288611 0.0673724282304 0.0
0.403834874769 -0.000200789759457 0.0
-0.029606837462 0.147600590019 0.0
-0.0897466772641 -0.339660501496 0.0
-0.0090269214073 0.0334962702819 0.0
-0.027450513558 -0.005549091915 0.0
0.626001050982 0.0182925260329 0.0
-0.0241783281121 -0.180540624097 0.0
-0.00242079052113 0.0199341766851 0.0
-0.0195575631724 -0.00143126591826 0.0
-0.00215085366128 -0.0148936294008 0.0
-0.00884605231028 -0.0299268691064 0.0
-0.0169952305638 0.00108288363906 0.0
-0.0257806576472 0.00464974131073 0.0
-0.0187863750342 -0.0509196336319 0.0
-0.0352415597722 0.00638212913046 0.0
-0.0284869537644 0.0835502595364 0.0
-0.0763674104213 0.136797212898 0.0
-0.130923455112 -0.134050055785 0.0
-0.076039001651 0.0101014697974 0.0
-0.161800232628 0.0988062577301 0.0
-0.186383712557 0.0664379083691 0.0
-0.120222274572 0.100838434259 0.0
0.197642053198 -0.192266133123 0.0
-0.0759377972748 0.243237171246 0.0
-0.081280419011 -0.457574639358 0.0
-0.00885962803446 -0.0142976736807 0.0
-0.033004518443 0.191903884436 0.0
-0.0145044193813 0.00949700858592 0.0
-0.0133636413919 -0.00997884343893 0.0
-0.010225886226 0.0152131578384 0.0
0.1692335103 0.0384225702812 0.0
0.0453273256018 0.0585973043232 0.0
-0.049987748769 0.151446856701 0.0
-0.0664397309083 0.15027803457 0.0
-0.0916829455566 -0.116710710421 0.0
-0.0575525792596 -0.0984724818949 0.0
-0.0537283742665 0.00955236173617 0.0
-0.0654001423362 0.0119233477653 0.0
-0.111556396182 0.159887382146 0.0
-0.233144853223 -0.121100149016 0.0
-0.0780858269313 0.0637017463358 0.0
-0.0972071035565 -0.032607864219 0.0
0.0425570834876 -0.340993948637 0.0
-0.0811308549971 0.2399382896 0.0
-0.00855625409204 -0.00973732807406 0.0
-0.00986066194532 0.0100727535546 0.0
-0.195713927792 0.0462296801737 0.0
0.549634178892 0.00739003121666 0.0
0.790538864295 -4.17200760166e-05 0.0
-0.0152543883837 0.107386879212 0.0
-0.00413238498779 0.0624832677025 0.0
0.338028586418 0.0214341340824 0.0
-0.0314968951264 0.137227006403 0.0
-0.0124894162764 -0.0474976473044 0.0