# vtk DataFile Version 2.0
2D Simulation Python
ASCII
DATASET UNSTRUCTURED_GRID
FIELD FieldData 1
NODES 1 2 int
7905 15488

POINTS 7905 double
0.0 0.0 0.0
1.0 0.0 0.0
1.0 1.0 0.0
0.0 1.0 0.0
0.01249999999997639 0.0 0.0
0.02499999999995297 0.0 0.0
0.03749999999992721 0.0 0.0
0.04999999999989927 0.0 0.0
0.0624999999998716 0.0 0.0
0.07499999999985263 0.0 0.0
0.08749999999983366 0.0 0.0
0.09999999999981467 0.0 0.0
0.1124999999997956 0.0 0.0
0.1249999999997765 0.0 0.0
0.1374999999997401 0.0 0.0
0.1499999999997036 0.0 0.0
0.1624999999996672 0.0 0.0
0.1749999999996308 0.0 0.0
0.1874999999995943 0.0 0.0
0.1999999999995579 0.0 0.0
0.2124999999995214 0.0 0.0
0.224999999999485 0.0 0.0
0.2374999999994485 0.0 0.0
0.2499999999994121 0.0 0.0
0.2624999999993757 0.0 0.0
0.2749999999993393 0.0 0.0
0.2874999999993028 0.0 0.0
0.2999999999992664 0.0 0.0
0.3124999999992299 0.0 0.0
0.3249999999991935 0.0 0.0
0.3374999999991571 0.0 0.0
0.3499999999991207 0.0 0.0
0.3624999999990842 0.0 0.0
0.3749999999990478 0.0 0.0
0.3874999999990113 0.0 0.0
0.3999999999989749 0.0 0.0
0.4124999999989398 0.0 0.0
0.4249999999989048 0.0 0.0
0.4374999999988697 0.0 0.0
0.4499999999988346 0.0 0.0
0.4624999999987995 0.0 0.0
0.4749999999987644 0.0 0.0
0.4874999999987293 0.0 0.0
0.4999999999986943 0.0 0.0
0.5124999999987259 0.0 0.0
0.5249999999987575 0.0 0.0
0.5374999999987891 0.0 0.0
0.5499999999988205 0.0 0.0
0.5624999999988521 0.0 0.0
0.5749999999988837 0.0 0.0
0.5874999999989152 0.0 0.0
0.5999999999989468 0.0 0.0
0.6124999999989797 0.0 0.0
0.6249999999990127 0.0 0.0
0.6374999999990456 0.0 0.0
0.6499999999990784 0.0 0.0
0.6624999999991114 0.0 0.0
0.6749999999991443 0.0 0.0
0.6874999999991771 0.0 0.0
0.69999999999921 0.0 0.0
0.712499999999243 0.0 0.0
0.7249999999992759 0.0 0.0
0.7374999999993088 0.0 0.0
0.7499999999993416 0.0 0.0
0.7624999999993746 0.0 0.0
0.7749999999994075 0.0 0.0
0.7874999999994404 0.0 0.0
0.7999999999994734 0.0 0.0
0.8124999999995063 0.0 0.0
0.8249999999995392 0.0 0.0
0.8374999999995721 0.0 0.0
0.8499999999996051 0.0 0.0
0.862499999999638 0.0 0.0
0.8749999999996709 0.0 0.0
0.8874999999997039 0.0 0.0
0.8999999999997368 0.0 0.0
0.9124999999997697 0.0 0.0
0.9249999999998026 0.0 0.0
0.9374999999998355 0.0 0.0
0.9499999999998684 0.0 0.0
0.9624999999999013 0.0 0.0
0.9749999999999343 0.0 0.0
0.9874999999999672 0.0 0.0
1.0 0.01249999999997639 0.0
1.0 0.02499999999995297 0.0
1.0 0.03749999999992721 0.0
1.0 0.04999999999989927 0.0
1.0 0.0624999999998716 0.0
1.0 0.07499999999985263 0.0
1.0 0.08749999999983366 0.0
1.0 0.09999999999981467 0.0
1.0 0.1124999999997956 0.0
1.0 0.1249999999997765 0.0
1.0 0.1374999999997401 0.0
1.0 0.1499999999997036 0.0
1.0 0.1624999999996672 0.0
1.0 0.1749999999996308 0.0
1.0 0.1874999999995943 0.0
1.0 0.1999999999995579 0.0
1.0 0.2124999999995214 0.0
1.0 0.224999999999485 0.0
1.0 0.2374999999994485 0.0
1.0 0.2499999999994121 0.0
1.0 0.2624999999993757 0.0
1.0 0.2749999999993393 0.0
1.0 0.2874999999993028 0.0
1.0 0.2999999999992664 0.0
1.0 0.3124999999992299 0.0
1.0 0.3249999999991935 0.0
1.0 0.3374999999991571 0.0
1.0 0.3499999999991207 0.0
1.0 0.3624999999990842 0.0
1.0 0.3749999999990478 0.0
1.0 0.3874999999990113 0.0
1.0 0.3999999999989749 0.0
1.0 0.4124999999989398 0.0
1.0 0.4249999999989048 0.0
1.0 0.4374999999988697 0.0
1.0 0.4499999999988346 0.0
1.0 0.4624999999987995 0.0
1.0 0.4749999999987644 0.0
1.0 0.4874999999987293 0.0
1.0 0.4999999999986943 0.0
1.0 0.5124999999987259 0.0
1.0 0.5249999999987575 0.0
1.0 0.5374999999987891 0.0
1.0 0.5499999999988205 0.0
1.0 0.5624999999988521 0.0
1.0 0.5749999999988837 0.0
1.0 0.5874999999989152 0.0
1.0 0.5999999999989468 0.0
1.0 0.6124999999989797 0.0
1.0 0.6249999999990127 0.0
1.0 0.6374999999990456 0.0
1.0 0.6499999999990784 0.0
1.0 0.6624999999991114 0.0
1.0 0.6749999999991443 0.0
1.0 0.6874999999991771 0.0
1.0 0.69999999999921 0.0
1.0 0.712499999999243 0.0
1.0 0.7249999999992759 0.0
1.0 0.7374999999993088 0.0
1.0 0.7499999999993416 0.0
1.0 0.7624999999993746 0.0
1.0 0.7749999999994075 0.0
1.0 0.7874999999994404 0.0
1.0 0.7999999999994734 0.0
1.0 0.8124999999995063 0.0
1.0 0.8249999999995392 0.0
1.0 0.8374999999995721 0.0
1.0 0.8499999999996051 0.0
1.0 0.862499999999638 0.0
1.0 0.8749999999996709 0.0
1.0 0.8874999999997039 0.0
1.0 0.8999999999997368 0.0
1.0 0.9124999999997697 0.0
1.0 0.9249999999998026 0.0
1.0 0.9374999999998355 0.0
1.0 0.9499999999998684 0.0
1.0 0.9624999999999013 0.0
1.0 0.9749999999999343 0.0
1.0 0.9874999999999672 0.0
0.9874999999999439 1.0 0.0
0.9749999999998877 1.0 0.0
0.9624999999998541 1.0 0.0
0.9499999999998356 1.0 0.0
0.9374999999997805 1.0 0.0
0.9249999999996992 1.0 0.0
0.9124999999996414 1.0 0.0
0.8999999999995836 1.0 0.0
0.8874999999996454 1.0 0.0
0.8749999999997078 1.0 0.0
0.8624999999997771 1.0 0.0
0.8499999999998515 1.0 0.0
0.837499999999895 1.0 0.0
0.8249999999999216 1.0 0.0
0.8124999999999571 1.0 0.0
0.7999999999999998 1.0 0.0
0.7875000000000937 1.0 0.0
0.77500000000021 1.0 0.0
0.7625000000002968 1.0 0.0
0.7500000000003858 1.0 0.0
0.7375000000004739 1.0 0.0
0.7250000000005448 1.0 0.0
0.7125000000005861 1.0 0.0
0.7000000000006934 1.0 0.0
0.6875000000008109 1.0 0.0
0.6750000000009306 1.0 0.0
0.6625000000010091 1.0 0.0
0.6500000000010593 1.0 0.0
0.6375000000011386 1.0 0.0
0.6250000000012101 1.0 0.0
0.612500000001312 1.0 0.0
0.6000000000013869 1.0 0.0
0.5875000000014601 1.0 0.0
0.5750000000015277 1.0 0.0
0.5625000000016089 1.0 0.0
0.5500000000016854 1.0 0.0
0.5375000000017889 1.0 0.0
0.5250000000018821 1.0 0.0
0.5125000000019756 1.0 0.0
0.5000000000020587 1.0 0.0
0.4875000000020093 1.0 0.0
0.4750000000019601 1.0 0.0
0.4625000000019108 1.0 0.0
0.4500000000018616 1.0 0.0
0.4375000000018123 1.0 0.0
0.425000000001763 1.0 0.0
0.4125000000017136 1.0 0.0
0.4000000000016644 1.0 0.0
0.3875000000016123 1.0 0.0
0.3750000000015603 1.0 0.0
0.3625000000015083 1.0 0.0
0.3500000000014563 1.0 0.0
0.3375000000014042 1.0 0.0
0.3250000000013522 1.0 0.0
0.3125000000013003 1.0 0.0
0.3000000000012483 1.0 0.0
0.2875000000011962 1.0 0.0
0.2750000000011442 1.0 0.0
0.2625000000010922 1.0 0.0
0.2500000000010403 1.0 0.0
0.2375000000009883 1.0 0.0
0.2250000000009362 1.0 0.0
0.2125000000008842 1.0 0.0
0.2000000000008322 1.0 0.0
0.1875000000007802 1.0 0.0
0.1750000000007281 1.0 0.0
0.1625000000006761 1.0 0.0
0.1500000000006241 1.0 0.0
0.1375000000005721 1.0 0.0
0.12500000000052 1.0 0.0
0.112500000000468 1.0 0.0
0.100000000000416 1.0 0.0
0.08750000000036395 1.0 0.0
0.07500000000031193 1.0 0.0
0.06250000000026001 1.0 0.0
0.05000000000020799 1.0 0.0
0.03750000000015596 1.0 0.0
0.02500000000010394 1.0 0.0
0.01250000000005191 1.0 0.0
0.0 0.9874999999999439 0.0
0.0 0.9749999999998877 0.0
0.0 0.9624999999998541 0.0
0.0 0.9499999999998356 0.0
0.0 0.9374999999997805 0.0
0.0 0.9249999999996992 0.0
0.0 0.9124999999996414 0.0
0.0 0.8999999999995836 0.0
0.0 0.8874999999996454 0.0
0.0 0.8749999999997078 0.0
0.0 0.8624999999997771 0.0
0.0 0.8499999999998515 0.0
0.0 0.837499999999895 0.0
0.0 0.8249999999999216 0.0
0.0 0.8124999999999571 0.0
0.0 0.7999999999999998 0.0
0.0 0.7875000000000937 0.0
0.0 0.77500000000021 0.0
0.0 0.7625000000002968 0.0
0.0 0.7500000000003858 0.0
0.0 0.7375000000004739 0.0
0.0 0.7250000000005448 0.0
0.0 0.7125000000005861 0.0
0.0 0.7000000000006934 0.0
0.0 0.6875000000008109 0.0
0.0 0.6750000000009306 0.0
0.0 0.6625000000010091 0.0
0.0 0.6500000000010593 0.0
0.0 0.6375000000011386 0.0
0.0 0.6250000000012101 0.0
0.0 0.612500000001312 0.0
0.0 0.6000000000013869 0.0
0.0 0.5875000000014601 0.0
0.0 0.5750000000015277 0.0
0.0 0.5625000000016089 0.0
0.0 0.5500000000016854 0.0
0.0 0.5375000000017889 0.0
0.0 0.5250000000018821 0.0
0.0 0.5125000000019756 0.0
0.0 0.5000000000020587 0.0
0.0 0.4875000000020093 0.0
0.0 0.4750000000019601 0.0
0.0 0.4625000000019108 0.0
0.0 0.4500000000018616 0.0
0.0 0.4375000000018123 0.0
0.0 0.425000000001763 0.0
0.0 0.4125000000017136 0.0
0.0 0.4000000000016644 0.0
0.0 0.3875000000016123 0.0
0.0 0.3750000000015603 0.0
0.0 0.3625000000015083 0.0
0.0 0.3500000000014563 0.0
0.0 0.3375000000014042 0.0
0.0 0.3250000000013522 0.0
0.0 0.3125000000013003 0.0
0.0 0.3000000000012483 0.0
0.0 0.2875000000011962 0.0
0.0 0.2750000000011442 0.0
0.0 0.2625000000010922 0.0
0.0 0.2500000000010403 0.0
0.0 0.2375000000009883 0.0
0.0 0.2250000000009362 0.0
0.0 0.2125000000008842 0.0
0.0 0.2000000000008322 0.0
0.0 0.1875000000007802 0.0
0.0 0.1750000000007281 0.0
0.0 0.1625000000006761 0.0
0.0 0.1500000000006241 0.0
0.0 0.1375000000005721 0.0
0.0 0.12500000000052 0.0
0.0 0.112500000000468 0.0
0.0 0.100000000000416 0.0
0.0 0.08750000000036395 0.0
0.0 0.07500000000031193 0.0
0.0 0.06250000000026001 0.0
0.0 0.05000000000020799 0.0
0.0 0.03750000000015596 0.0
0.0 0.02500000000010394 0.0
0.0 0.01250000000005191 0.0
0.499547313951317 0.4984202829398231 0.0
0.7057142553715264 0.7049957919913439 0.0
0.2942617789825218 0.706558362574613 0.0
0.7052750732513358 0.29408370064617073 0.0
0.2941161372558304 0.29425664999463297 0.0
0.49473409022248005 0.7865288457870021 0.0
0.21400675843102512 0.49559804899934157 0.0
0.7879606576561358 0.5053778129282838 0.0
0.505369301426186 0.2119891966328729 0.0
0.8286074034533916 0.8287576993256224 0.0
0.17122528584787128 0.8286011816233976 0.0
0.8287577004551061 0.17139259539200086 0.0
0.17140751986106711 0.17123186221929698 0.0
0.6412438345717256 0.8516520873564006 0.0
0.14868333985619164 0.6419476520576217 0.0
0.36001439100831745 0.8471882363166383 0.0
0.8472916681795735 0.639858398754968 0.0
0.8516551147624887 0.3587551765143301 0.0
0.1529024464427883 0.36006180552290556 0.0
0.3587547979315107 0.148343271772372 0.0
0.6398585806283599 0.15270777331315408 0.0
0.5665851234669081 0.6415505082226679 0.0
0.3688065763014604 0.5781443560211958 0.0
0.6448511073779454 0.4469929790001165 0.0
0.43335085497228876 0.35323599965884955 0.0
0.42653529248703315 0.6555720715037009 0.0
0.6657620768186652 0.5502649260729648 0.0
0.3566111211511165 0.42874186251021185 0.0
0.5447859278293945 0.34262223816401394 0.0
0.4594948214297615 0.8920313032464312 0.0
[...]
POINT_DATA 7905
VECTORS vector double
0.0 0.0 0.0
0.0 0.0 0.0
0.0 0.0 0.0
0.0 0.0 0.0
0.0 0.0 0.0
0.0 0.0 0.0
0.0 0.0 0.0
0.0 0.0 0.0
0.0 0.0 0.0
0.0 0.0 0.0
0.0 0.0 0.0
0.0 0.0 0.0
0.0 0.0 0.0
0.0 0.0 0.0
0.0 0.0 0.0
0.0 0.0 0.0
0.0 0.0 0.0
0.0 0.0 0.0
0.0 0.0 0.0
0.0 0.0 0.0
0.0 0.0 0.0
0.0 0.0 0.0
0.0 0.0 0.0
0.0 0.0 0.0
0.0 0.0 0.0
0.0 0.0 0.0
0.0 0.0 0.0
0.0 0.0 0.0
0.0 0.0 0.0
0.0 0.0 0.0
0.0 0.0 0.0
0.0 0.0 0.0
0.0 0.0 0.0
0.0 0.0 0.0
0.0 0.0 0.0
0.0 0.0 0.0
0.0 0.0 0.0
0.0 0.0 0.0
0.0 0.0 0.0
0.0 0.0 0.0
0.0 0.0 0.0
0.0 0.0 0.0
0.0 0.0 0.0
0.0 0.0 0.0
0.0 0.0 0.0
0.0 0.0 0.0
0.0 0.0 0.0
0.0 0.0 0.0
0.0 0.0 0.0
0.0 0.0 0.0
0.0 0.0 0.0
0.0 0.0 0.0
0.0 0.0 0.0
0.0 0.0 0.0
0.0 0.0 0.0
0.0 0.0 0.0
0.0 0.0 0.0
0.0 0.0 0.0
0.0 0.0 0.0
0.0 0.0 0.0
0.0 0.0 0.0
0.0 0.0 0.0
0.0 0.0 0.0
0.0 0.0 0.0
0.0 0.0 0.0
0.0 0.0 0.0
0.0 0.0 0.0
0.0 0.0 0.0
0.0 0.0 0.0
0.0 0.0 0.0
0.0 0.0 0.0
0.0 0.0 0.0
0.0 0.0 0.0
0.0 0.0 0.0
0.0 0.0 0.0
0.0 0.0 0.0
0.0 0.0 0.0
0.0 0.0 0.0
0.0 0.0 0.0
0.0 0.0 0.0
0.0 0.0 0.0
0.0 0.0 0.0
0.0 0.0 0.0
0.0 0.0 0.0
0.0 0.0 0.0
0.0 0.0 0.0
0.0 0.0 0.0
0.0 0.0 0.0
0.0 0.0 0.0
0.0 0.0 0.0
0.0 0.0 0.0
0.0 0.0 0.0
0.0 0.0 0.0
0.0 0.0 0.0
0.0 0.0 0.0
0.0 0.0 0.0
0.0 0.0 0.0
0.0 0.0 0.0
0.0 0.0 0.0
0.0 0.0 0.0
0.0 0.0 0.0
0.0 0.0 0.0
0.0 0.0 0.0
0.0 0.0 0.0
0.0 0.0 0.0
0.0 0.0 0.0
0.0 0.0 0.0
0.0 0.0 0.0
0.0 0.0 0.0
0.0 0.0 0.0
0.0 0.0 0.0
0.0 0.0 0.0
0.0 0.0 0.0
0.0 0.0 0.0
0.0 0.0 0.0
0.0 0.0 0.0
0.0 0.0 0.0
0.0 0.0 0.0
0.0 0.0 0.0
0.0 0.0 0.0
0.0 0.0 0.0
0.0 0.0 0.0
0.0 0.0 0.0
0.0 0.0 0.0
0.0 0.0 0.0
0.0 0.0 0.0
0.0 0.0 0.0
0.0 0.0 0.0
0.0 0.0 0.0
0.0 0.0 0.0
0.0 0.0 0.0
0.0 0.0 0.0
0.0 0.0 0.0
0.0 0.0 0.0
0.0 0.0 0.0
0.0 0.0 0.0
0.0 0.0 0.0
0.0 0.0 0.0
0.0 0.0 0.0
0.0 0.0 0.0
0.0 0.0 0.0
0.0 0.0 0.0
0.0 0.0 0.0
0.0 0.0 0.0
0.0 0.0 0.0
0.0 0.0 0.0
0.0 0.0 0.0
0.0 0.0 0.0
0.0 0.0 0.0
0.0 0.0 0.0
0.0 0.0 0.0
0.0 0.0 0.0
0.0 0.0 0.0
0.0 0.0 0.0
0.0 0.0 0.0
0.0 0.0 0.0
0.0 0.0 0.0
0.0 0.0 0.0
0.0 0.0 0.0
0.0 0.0 0.0
0.0 0.0 0.0
0.0 0.0 0.0
1.0 0.0 0.0
1.0 0.0 0.0
1.0 0.0 0.0
1.0 0.0 0.0
1.0 0.0 0.0
1.0 0.0 0.0
1.0 0.0 0.0
1.0 0.0 0.0
1.0 0.0 0.0
1.0 0.0 0.0
1.0 0.0 0.0
1.0 0.0 0.0
1.0 0.0 0.0
1.0 0.0 0.0
1.0 0.0 0.0
1.0 0.0 0.0
1.0 0.0 0.0
1.0 0.0 0.0
1.0 0.0 0.0
1.0 0.0 0.0
1.0 0.0 0.0
1.0 0.0 0.0
1.0 0.0 0.0
1.0 0.0 0.0
1.0 0.0 0.0
1.0 0.0 0.0
1.0 0.0 0.0
1.0 0.0 0.0
1.0 0.0 0.0
1.0 0.0 0.0
1.0 0.0 0.0
1.0 0.0 0.0
1.0 0.0 0.0
1.0 0.0 0.0
1.0 0.0 0.0
1.0 0.0 0.0
1.0 0.0 0.0
1.0 0.0 0.0
1.0 0.0 0.0
1.0 0.0 0.0
1.0 0.0 0.0
1.0 0.0 0.0
1.0 0.0 0.0
1.0 0.0 0.0
1.0 0.0 0.0
1.0 0.0 0.0
1.0 0.0 0.0
1.0 0.0 0.0
1.0 0.0 0.0
1.0 0.0 0.0
1.0 0.0 0.0
1.0 0.0 0.0
1.0 0.0 0.0
1.0 0.0 0.0
1.0 0.0 0.0
1.0 0.0 0.0
1.0 0.0 0.0
1.0 0.0 0.0
1.0 0.0 0.0
1.0 0.0 0.0
1.0 0.0 0.0
1.0 0.0 0.0
1.0 0.0 0.0
1.0 0.0 0.0
1.0 0.0 0.0
1.0 0.0 0.0
1.0 0.0 0.0
1.0 0.0 0.0
1.0 0.0 0.0
1.0 0.0 0.0
1.0 0.0 0.0
1.0 0.0 0.0
1.0 0.0 0.0
1.0 0.0 0.0
1.0 0.0 0.0
1.0 0.0 0.0
1.0 0.0 0.0
1.0 0.0 0.0
1.0 0.0 0.0
0.0 0.0 0.0
0.0 0.0 0.0
0.0 0.0 0.0
0.0 0.0 0.0
0.0 0.0 0.0
0.0 0.0 0.0
0.0 0.0 0.0
0.0 0.0 0.0
0.0 0.0 0.0
0.0 0.0 0.0
0.0 0.0 0.0
0.0 0.0 0.0
0.0 0.0 0.0
0.0 0.0 0.0
0.0 0.0 0.0
0.0 0.0 0.0
0.0 0.0 0.0
0.0 0.0 0.0
0.0 0.0 0.0
0.0 0.0 0.0
0.0 0.0 0.0
0.0 0.0 0.0
0.0 0.0 0.0
0.0 0.0 0.0
0.0 0.0 0.0
0.0 0.0 0.0
0.0 0.0 0.0
0.0 0.0 0.0
0.0 0.0 0.0
0.0 0.0 0.0
0.0 0.0 0.0
0.0 0.0 0.0
0.0 0.0 0.0
0.0 0.0 0.0
0.0 0.0 0.0
0.0 0.0 0.0
0.0 0.0 0.0
0.0 0.0 0.0
0.0 0.0 0.0
0.0 0.0 0.0
0.0 0.0 0.0
0.0 0.0 0.0
0.0 0.0 0.0
0.0 0.0 0.0
0.0 0.0 0.0
0.0 0.0 0.0
0.0 0.0 0.0
0.0 0.0 0.0
0.0 0.0 0.0
0.0 0.0 0.0
0.0 0.0 0.0
0.0 0.0 0.0
0.0 0.0 0.0
0.0 0.0 0.0
0.0 0.0 0.0
0.0 0.0 0.0
0.0 0.0 0.0
0.0 0.0 0.0
0.0 0.0 0.0
0.0 0.0 0.0
0.0 0.0 0.0
0.0 0.0 0.0
0.0 0.0 0.0
0.0 0.0 0.0
0.0 0.0 0.0
0.0 0.0 0.0
0.0 0.0 0.0
0.0 0.0 0.0
0.0 0.0 0.0
0.0 0.0 0.0
0.0 0.0 0.0
0.0 0.0 0.0
0.0 0.0 0.0
0.0 0.0 0.0
0.0 0.0 0.0
0.0 0.0 0.0
0.0 0.0 0.0
0.0 0.0 0.0
0.0 0.0 0.0
-0.213656696472 0.05730039078 0.0
-0.105429202592 -0.160421485003 0.0
-0.0537439927923 0.235324459702 0.0
-0.119857638008 -0.0817120557669 0.0
-0.0990264969237 0.0707635904764 0.0
0.0862133315191 0.112394267077 0.0
-0.0758860050404 0.175549442843 0.0
-0.18867182787 -0.254919171867 0.0
-0.118568380422 -0.00183504626487 0.0
0.0439846243593 -0.318231804487 0.0
-0.0555803685097 0.246044805895 0.0
-0.0235710093256 -0.0252374206826 0.0
-0.0302265240353 0.0274952350339 0.0
0.284981062485 -0.00869929917302 0.0
-0.0376236087398 0.220599642285 0.0
0.119448722279 0.141080917269 0.0
-0.16800533903 -0.406073978889 0.0
-0.058579580142 -0.105009319319 0.0
-0.043600611204 0.0958732552459 0.0
-0.073087113976 0.0176113708057 0.0
-0.0725649244365 -0.0219500434329 0.0
-0.141916521186 0.0361737318631 0.0
-0.128855703651 0.183439369551 0.0
-0.234537306744 -0.105475578106 0.0
-0.170232821701 0.0507013254601 0.0
-0.0936714198704 0.171125657803 0.0
-0.244960796487 -0.137111745671 0.0
-0.151726130167 0.118099574367 0.0
-0.188269864371 -0.0170707704734 0.0
0.391356165341 0.0640498590523 0.0
-0.0246540543183 0.120395738132 0.0
-0.0812076641236 -0.244530086544 0.0
-0.082326093943 -0.0041596990351 0.0
0.450969327865 -0.0625241543603 0.0
-0.0273416933954 0.212427267459 0.0
-0.0136842403977 -0.0317735741119 0.0
-0.0365484965951 0.0110806405664 0.0
-0.10739582204 -0.495140797167 0.0
0.164030365074 0.118708422686 0.0
-0.0323179805052 -0.0130269585145 0.0
-0.0171435712389 0.0422943244459 0.0
0.0645313315566 0.0147692172381 0.0
-0.065213735697 0.226602042546 0.0
-0.156444471356 -0.150579667339 0.0
-0.129000258049 0.0358633780996 0.0
0.00450791131857 0.185741782952 0.0
-0.219787664421 -0.269614133101 0.0
-0.0961795865857 0.122349223411 0.0
-0.133721580563 -0.0384152981678 0.0
0.0750849823316 -0.37153334231 0.0
-0.0805772485209 0.256465964061 0.0
-0.00245383783863 -0.00377943098722 0.0
-0.00559914723384 0.00626868354656 0.0
0.541765141643 0.0164263383843 0.0
-0.0150148192208 0.138541484898 0.0
-0.0302762113736 -0.102001537329 0.0
-0.0546607411543 0.00388015150786 0.0
-0.130257393811 -0.343493586002 0.0
-0.0136100070646 0.217441231327 0.0
-0.0703181523812 -0.0451801680672 0.0
-0.0590551993834 0.067798203229 0.0
0.0845022858017 -0.131893538155 0.0
-0.0491157290061 0.253528865557 0.0
-0.0631717074838 -0.0728039356712 0.0
-0.0694011007497 0.0384116269743 0.0
-0.16297573743 0.108475366649 0.0
-0.22835413296 -0.0182216917461 0.0
-0.173804149414 0.126860364953 0.0
-0.22719647983 -0.020421470074 0.0
-0.176672565642 -0.0852488792657 0.0
-0.0827059697756 0.212334332768 0.0
-0.183078803998 -0.0789485757477 0.0
-0.134634629405 0.0843846663532 0.0
0.632489787664 -0.00793280588399 0.0
-0.0106064662767 0.142015433343 0.0
-0.0118566014538 -0.0449850937184 0.0
-0.0386475570923 0.00485343976328 0.0
-0.0634208739595 -0.307812466888 0.0
-0.0392544017018 -0.00655228810135 0.0
0.42666119789 0.0532013827869 0.0
-0.0121004852156 0.0591533812136 0.0
0.413731645799 -0.113094364291 0.0
-0.0472972046126 0.231342107896 0.0
-0.00385521653585 -0.00888703144752 0.0
-0.0147194066352 0.00691338680765 0.0
-0.0755216085575 -0.54008913845 0.0
-0.00940203256347 -0.00633318222739 0.0
0.107524557358 0.135758013491 0.0
-0.00718560287093 0.0158471873308 0.0
-0.0547092485705 0.117110174841 0.0
-0.121062809756 0.173178916245 0.0
-0.234181038479 -0.192703136058 0.0
-0.154866048528 0.00480539571457 0.0
0.224187888406 0.0554887028456 0.0
-0.0483472721871 0.193809449688 0.0
-0.107248705635 -0.18812389739 0.0
-0.0917031475661 0.00882153820806 0.0
0.107816360678 0.134964796594 0.0
-0.0603669452177 0.135577760803 0.0
-0.186727218381 -0.329444495247 0.0
-0.0971433343582 -0.0166590445188 0.0
-0.200299205395 0.0586990400099 0.0
-0.201967897877 0.0166673022142 0.0
-0.20911198051 -0.0210922977831 0.0
-0.216579519302 0.0192311736294 0.0
-0.0004411910927 -0.00115801550653 0.0
-0.000578134111148 -0.000646582083045 0.0
-0.00368610863991 0.00213975874842 0.0
-0.00108339240807 0.00115520686031 0.0
0.372363265267 -0.148196699834 0.0
0.0641873014378 -0.375551721011 0.0
-0.0681611823856 0.264980806102 0.0
-0.0622768680698 0.280315362932 0.0
-0.00203460886881 -0.00150695098478 0.0
-0.0014857261512 0.00316568749883 0.0
-0.0519067897344 -0.522027008959 0.0
0.113862597355 0.149842833045 0.0
-0.184213518781 0.0185916723044 0.0
-0.186938245954 0.0551756230845 0.0
-0.0773992954856 0.149086953362 0.0
-0.0225884267572 0.154097818726 0.0
-0.0549927652085 0.180029910451 0.0
-0.246558936698 -0.171491140136 0.0
-0.23869243993 -0.226933104771 0.0
-0.237910250792 -0.188875943039 0.0
-0.136729772375 0.146106628913 0.0
-0.111960513582 0.152465499481 0.0
-0.126137275265 0.127393432101 0.0
-0.16993725111 -0.00586422097064 0.0
-0.149389450392 -0.0165231130705 0.0
-0.163881311552 -0.0339957722208 0.0
-0.15353458569 0.156461839825 0.0
-0.17639382225 0.122383320747 0.0
-0.148219468068 0.152434033924 0.0
-0.12372325283 0.147116567578 0.0
-0.117813510772 0.177874971225 0.0
-0.245432396232 -0.0682260007388 0.0
-0.237667440355 -0.020464924182 0.0
-0.233086049891 -0.0614686469767 0.0
-0.248293352937 -0.119356501597 0.0
-0.240809313353 -0.0832881641981 0.0
0.0120958602238 0.117859194165 0.0
0.0342747823037 0.147269872053 0.0
-0.0979616545357 0.179181197936 0.0
-0.0891388262535 0.153845608258 0.0
-0.21732587478 -0.226239486055 0.0
-0.221464056549 -0.273776944236 0.0
-0.138426211005 0.00117999741901 0.0
-0.128272943695 -0.0158696182254 0.0
-0.0549280373625 0.232436537552 0.0
-0.0574675357945 0.245407989688 0.0
-0.0453413209145 0.243438407532 0.0
0.143593913921 -0.00101238261618 0.0
0.0596307481429 -0.0592430740715 0.0
0.187962141012 -0.0548909854915 0.0
-0.094477618967 0.0263557476505 0.0
-0.093754421295 0.0403121332734 0.0
-0.0736877400796 0.0273994944151 0.0
-0.10073929793 -0.134103206194 0.0
-0.10109794168 -0.108904030257 0.0
-0.0628852460096 -0.0902315945594 0.0
-0.0520048303655 0.246698514778 0.0
-0.0669446863019 0.238303860876 0.0
-0.0251742602233 -0.1466959283 0.0
-0.0471854420215 -0.0761301474376 0.0
-0.0861755912191 0.0545782824498 0.0
-0.110212504979 0.0563632602252 0.0
-0.0945042871233 -0.0831433812129 0.0
-0.134312964008 -0.107471980814 0.0
-0.174203747347 -0.405701757285 0.0
-0.184059882459 -0.315170442987 0.0
-0.201790406701 -0.357815221459 0.0
0.0404989495912 0.180670364489 0.0
-0.00311573355867 0.204910636015 0.0
0.0465497935549 0.173189005645 0.0
-0.0730133581945 -0.03300826164 0.0
-0.0997050065076 -0.0473127663087 0.0
-0.096652649652 -0.0320035851275 0.0
-0.0522528707685 0.0830786269662 0.0
-0.0765102450069 0.0924987675822 0.0
-0.0669567188595 0.109210764885 0.0
-0.177490690527 0.0938561632622 0.0
-0.165468720545 0.085059054647 0.0
0.657083432749 0.0201984002893 0.0
0.684234639834 0.0160427769048 0.0
-0.00626419952573 0.0604501195567 0.0
-0.00640518534123 0.0745303755616 0.0
-0.0233157987186 -0.149821795432 0.0
-0.0190517396482 -0.111249284717 0.0
-0.04021886159 -0.00183946274465 0.0
-0.0435391128117 -0.000313835716237 0.0
-0.0212891448012 -0.171422150109 0.0
-0.0723052839454 -0.282388499845 0.0
-0.0310255806401 -0.00236098581463 0.0
-0.0520796775345 -0.00656718556892 0.0
0.672364416993 0.018818860075 0.0
0.399338440271 0.0588368829542 0.0
-0.0044090575371 0.0417041613547 0.0
-0.0173029671849 0.0826213385054 0.0
-0.23477457694 -0.151148554176 0.0
-0.164672925731 0.023284767129 0.0
-0.17495924019 -0.220312176874 0.0
-0.118043757806 -0.242271738264 0.0
-0.0375143367202 0.217753951308 0.0
-0.0355501529311 0.231648746426 0.0
-0.126412088682 -0.0631230995677 0.0
-0.0953852354009 -0.0637659432583 0.0
-0.0991431220194 0.0916884069619 0.0
-0.0807026077016 0.0720385332905 0.0
-0.0867397069669 0.194026714699 0.0
-0.104297098529 0.202712182706 0.0
-0.142659272185 0.101571765988 0.0
-0.151837999333 0.0718030710917 0.0
-0.18891465768 0.0957490129084 0.0
-0.163412787531 0.126190070217 0.0
-0.198428834363 0.0792335008685 0.0
-0.196275000111 0.0930229354844 0.0
-0.225956412379 0.0205408488116 0.0
-0.222592497357 0.0279003321577 0.0
-0.131902945087 -0.346098906453 0.0
-0.116819097138 -0.387520371768 0.0
-0.0711785918865 -0.0124822224785 0.0
-0.0545539309914 -0.0129265841247 0.0
0.223208400573 0.102262636954 0.0
0.244049922921 0.0967361933851 0.0
-0.0349428251576 0.107960477394 0.0
-0.025180344393 0.079785783835 0.0
0.733680417215 -0.0163755871977 0.0
0.688908245333 -0.0277277254555 0.0
-0.00712444705939 0.119296611049 0.0
-0.0115558563794 0.139130567226 0.0
-0.00301722540912 -0.014222712391 0.0
-0.00227071519646 -0.00868741363759 0.0
-0.0225885794678 0.00293318071066 0.0
-0.0176130914455 0.00325003131673 0.0
-0.0425805351697 -0.379849398047 0.0
-0.0365608693635 -0.308190448323 0.0
-0.0146451536728 -0.0037909101146 0.0
-0.0211427474435 -0.00382720190474 0.0
0.455355291734 0.0452385306352 0.0
0.532972792702 0.0342763536599 0.0
-0.00387981788128 0.0179712161622 0.0
-0.00439452792953 0.0256378286046 0.0
0.470911550299 0.0350671860638 0.0
0.742676015543 0.00755281112988 0.0
-0.0191278992287 0.131202101771 0.0
-0.00481025350572 0.0785620346549 0.0
-0.0484648752066 -0.155238152486 0.0
-0.0113949203766 -0.0695383055197 0.0
-0.0619942494367 0.00128577152867 0.0
-0.0387012089768 0.00118023076886 0.0
-0.143976035256 -0.45613901235 0.0
-0.135986540384 -0.448831498844 0.0
0.125755837211 0.136731975938 0.0
0.0266550036326 0.185105467096 0.0
-0.0518853294879 -0.0197741349881 0.0
-0.0486744241692 -0.0280188390433 0.0
-0.0307265281674 0.0690421422578 0.0
-0.0373103791074 0.0581550189434 0.0
0.153534333782 0.0813176067599 0.0
0.279436262195 0.0658704323369 0.0
0.184121738784 0.0973879566707 0.0
-0.0609668652484 0.188288715912 0.0
-0.0391709691168 0.164385850006 0.0
-0.0522683561073 0.159167224345 0.0
-0.145938065983 -0.224439020704 0.0
-0.100076013869 -0.214585626061 0.0
-0.145650310419 -0.269036717657 0.0
-0.105186013504 0.00555885572428 0.0
-0.0837350160977 0.00156133201958 0.0
-0.0955908032023 -0.00408794984503 0.0
-0.15532644238 -0.0149628930629 0.0
-0.0989000457422 -0.0368118121918 0.0
-0.0849938544444 0.0283091741737 0.0
-0.0859471412731 0.222906852176 0.0
-0.105188201055 0.207587106746 0.0
-0.209998437879 -0.0943356749053 0.0
-0.175951954804 -0.112984760745 0.0
-0.206496880866 -0.135804309029 0.0
-0.133002389979 0.0610940799983 0.0
-0.149305249074 0.0445398883712 0.0
0.234343773707 -0.156979540794 0.0
0.229719673276 -0.105544370916 0.0
0.0792970061559 -0.21280156586 0.0
-0.0504434931175 0.252523645839 0.0
-0.0430664746365 0.248517178954 0.0
-0.0504430642961 0.254407721119 0.0
-0.0201347920238 -0.0317051845967 0.0
-0.0354167664178 -0.0547824848042 0.0
-0.0394108398135 -0.0456979855697 0.0
-0.0357702680294 0.0198121363793 0.0
-0.0527559173387 0.0239306144248 0.0
-0.0487221584841 0.0341837572857 0.0
-0.139734678348 -0.123132034358 0.0
-0.0659934362026 0.225436436852 0.0
-0.150638116485 -0.0855828877916 0.0
-0.117544850066 0.078516346389 0.0
-0.189460685196 0.0129736151105 0.0
-0.209563183985 -0.0497429258502 0.0
-0.223849111485 -0.119186917506 0.0
-0.211548410045 -0.0567429690904 0.0
-0.186550599236 -0.0483944897106 0.0
0.78280563768 0.00142714644887 0.0
-0.00368468157822 0.0805004424151 0.0
-0.0067225242611 -0.0432690534937 0.0
-0.0326106764977 0.00181479888384 0.0
0.103140765621 0.1288294331 0.0
0.0586490596196 0.156498159849 0.0
-0.189593537735 -0.299757666606 0.0
-0.210663938415 -0.322148362049 0.0
-0.0673791226345 0.151508795139 0.0
-0.0742983531046 0.133129013641 0.0
-0.107840433529 -0.0120066721314 0.0
-0.11034211106 -0.0236235352985 0.0
0.430491577139 -0.0929715725183 0.0
0.657935127873 -0.0372243392166 0.0
-0.0371512486309 0.222675265111 0.0
-0.0172392787775 0.153859209985 0.0
-0.00745554611651 -0.0167407703421 0.0
-0.00124611977706 -0.00423389259291 0.0
-0.0233228674027 0.00925426257286 0.0
-0.0114017307424 0.00273163033513 0.0
-0.0415978970432 -0.418502369801 0.0
-0.0907485375428 -0.528862635352 0.0
-0.00835387439013 -0.00278921789657 0.0
-0.0173537239487 -0.00962946311424 0.0
0.417876284399 0.0519324092031 0.0
0.124245199619 0.129603568273 0.0
-0.00255798591451 0.0105217076461 0.0
-0.0113898340021 0.0258641578122 0.0
-0.0315654232718 0.222940039837 0.0
0.351932882174 -0.0429416319453 0.0
-0.0552268473252 0.0161570208776 0.0
-0.0326855438253 -0.0647363419247 0.0
-0.0585819735123 -0.348041694413 0.0
-0.0925951576919 -0.469964533442 0.0
-0.033187770072 0.230452725671 0.0
0.00150871887999 0.194012332112 0.0
-0.0443861367394 -0.0370682996019 0.0
-0.0291610321737 -0.0209724620298 0.0
-0.0437204068568 0.046177183533 0.0
-0.0256560103324 0.0379661342709 0.0
-0.000745800017598 -0.00215347449289 0.0
0.568463840362 -0.0631208635678 0.0
-0.00700421338772 0.00242886017135 0.0
-0.0326170015014 0.194528471149 0.0
-0.0486479975872 -0.480096284051 0.0
-0.00446582336472 -0.0020963365907 0.0
0.309444902781 0.0778182540801 0.0
-0.00190192505003 0.00603399907308 0.0
0.351901012631 0.0379775160315 0.0
-0.0314827821313 0.174776459646 0.0
-0.0679403199648 -0.155913473186 0.0
-0.074846313439 0.00625111379934 0.0
-0.00360169010081 -0.00669649619624 0.0
-0.0108513828223 0.0075581645358 0.0
0.262445802815 -0.203450886953 0.0
-0.0736819701202 0.260622328301 0.0
-0.0429456963038 -0.508234220496 0.0
-0.00607127703574 -0.00589895264203 0.0
-0.00696639083477 0.192647602539 0.0
-0.00721919264647 0.0115422498803 0.0
-0.0334378686392 -0.238371840788 0.0
-0.0425122947298 0.244868283693 0.0
-0.0656527298947 -0.0579589176039 0.0
-0.0641755853094 0.0519382985724 0.0
-0.0252405703169 0.0750777568202 0.0
-0.0987964561922 0.0764130025999 0.0
-0.102014212387 0.200026539518 0.0
-0.127312383305 0.18311157653 0.0
-0.208100300757 -0.17937622157 0.0
-0.14374820814 0.0219114515231 0.0
0.178840619248 0.110813088452 0.0
-0.0477517665529 0.134604584524 0.0
0.115780502273 0.138845969863 0.0
-0.0542223854311 0.119874452913 0.0
-0.152846723436 -0.316397943579 0.0
-0.0876491527197 -0.011072962457 0.0
-0.181230415565 -0.359900495727 0.0
-0.0889890036957 -0.0199061329363 0.0
0.790272908114 -0.00673376582693 0.0
0.555692407702 -0.0240256989504 0.0
-0.00396146534144 0.09350922935 0.0
-0.0161716405587 0.17383004037 0.0
0.310622354242 0.0768978118521 0.0
0.454933112429 -0.0101440516225 0.0
-0.0221735579673 0.189074867406 0.0
-0.0866884859619 -0.400714705444 0.0
-0.0144191204974 0.0523357865454 0.0
-0.0367233021135 -0.00952520527452 0.0
0.637123211325 0.0220543752486 0.0
-0.0247910400248 -0.218719395387 0.0
-0.00386080419117 0.0312366931426 0.0
-0.0250912797772 -0.00288549690799 0.0
-0.00309263089602 -0.0189489836711 0.0
-0.0132384700243 -0.0400809152947 0.0
-0.0240861843525 0.0020364636109 0.0
-0.0390001043911 0.00745377860908 0.0
-0.0290052717156 -0.0729239301845 0.0
-0.05448323073 0.0100631079117 0.0
0.058978527724 0.0790792060782 0.0
-0.0811281770067 0.201800681373 0.0
-0.178876505074 -0.204654730102 0.0
-0.124679706223 0.0140358334706 0.0
-0.116610272507 0.113702154848 0.0
-0.156734278601 0.0696280736735 0.0
-0.147378567754 0.155040648165 0.0
0.226201607847 -0.201129798278 0.0
-0.0631824913633 0.255921944778 0.0
-0.054008166449 -0.47801306125 0.0
-0.010555700479 -0.0170109443856 0.0
-0.0198534066486 0.201968663868 0.0
-0.0221001666297 0.014554254833 0.0
-0.0152941166584 -0.0133458986754 0.0
-0.0161094701385 0.0231681105975 0.0
0.245711343558 0.0274508884055 0.0
0.130983375122 0.0477616620736 0.0
-0.0441904585096 0.209288758773 0.0
-0.0629995073778 0.213942773601 0.0
-0.132624407326 -0.178721802892 0.0
-0.0856571467593 -0.148147899423 0.0
-0.085854495446 0.0145033354848 0.0
-0.10640686421 0.0178623480701 0.0
-0.0561682759644 0.205581917429 0.0
-0.205056713029 -0.172888486092 0.0
-0.119974130816 0.10352568273 0.0
-0.156948687241 -0.0591201078404 0.0
0.0678162049445 -0.350392949647 0.0
-0.0716857579496 0.247583803021 0.0
-0.00922065681206 -0.0116461067698 0.0
-0.0150865923319 0.0152329442393 0.0
-0.198641845276 0.0489162681861 0.0
0.590995153948 0.00227817917688 0.0
0.806586081879 -0.002498559105 0.0
-0.0123480178336 0.143042442812 0.0
-0.00311994322379 0.0817119969623 0.0
0.399243932765 0.0131962012395 0.0
-0.0266972942651 0.185497760238 0.0
-0.0192105614144 -0.0678457156309 0.0
-0.00399161888417 -0.0272048357438 0.0
-0.0468750064425 0.00491373017109 0.0
-0.0268961810451 0.00179810993162 0.0