# vtk DataFile Version 2.0
2D Simulation Python
ASCII
DATASET UNSTRUCTURED_GRID
FIELD FieldData 1
NODES 1 2 int
7905 15488

POINTS 7905 double
0.0 0.0 0.0
1.0 0.0 0.0
1.0 1.0 0.0
0.0 1.0 0.0
0.01249999999997639 0.0 0.0
0.02499999999995297 0.0 0.0
0.03749999999992721 0.0 0.0
0.04999999999989927 0.0 0.0
0.0624999999998716 0.0 0.0
0.07499999999985263 0.0 0.0
0.08749999999983366 0.0 0.0
0.09999999999981467 0.0 0.0
0.1124999999997956 0.0 0.0
0.1249999999997765 0.0 0.0
0.1374999999997401 0.0 0.0
0.1499999999997036 0.0 0.0
0.1624999999996672 0.0 0.0
0.1749999999996308 0.0 0.0
0.1874999999995943 0.0 0.0
0.1999999999995579 0.0 0.0
0.2124999999995214 0.0 0.0
0.224999999999485 0.0 0.0
0.2374999999994485 0.0 0.0
0.2499999999994121 0.0 0.0
0.2624999999993757 0.0 0.0
0.2749999999993393 0.0 0.0
0.2874999999993028 0.0 0.0
0.2999999999992664 0.0 0.0
0.3124999999992299 0.0 0.0
0.3249999999991935 0.0 0.0
0.3374999999991571 0.0 0.0
0.3499999999991207 0.0 0.0
0.3624999999990842 0.0 0.0
0.3749999999990478 0.0 0.0
0.3874999999990113 0.0 0.0
0.3999999999989749 0.0 0.0
0.4124999999989398 0.0 0.0
0.4249999999989048 0.0 0.0
0.4374999999988697 0.0 0.0
0.4499999999988346 0.0 0.0
0.4624999999987995 0.0 0.0
0.4749999999987644 0.0 0.0
0.4874999999987293 0.0 0.0
0.4999999999986943 0.0 0.0
0.5124999999987259 0.0 0.0
0.5249999999987575 0.0 0.0
0.5374999999987891 0.0 0.0
0.5499999999988205 0.0 0.0
0.5624999999988521 0.0 0.0
0.5749999999988837 0.0 0.0
0.5874999999989152 0.0 0.0
0.5999999999989468 0.0 0.0
0.6124999999989797 0.0 0.0
0.6249999999990127 0.0 0.0
0.6374999999990456 0.0 0.0
0.6499999999990784 0.0 0.0
0.6624999999991114 0.0 0.0
0.6749999999991443 0.0 0.0
0.6874999999991771 0.0 0.0
0.69999999999921 0.0 0.0
0.712499999999243 0.0 0.0
0.7249999999992759 0.0 0.0
0.7374999999993088 0.0 0.0
0.7499999999993416 0.0 0.0
0.7624999999993746 0.0 0.0
0.7749999999994075 0.0 0.0
0.7874999999994404 0.0 0.0
0.7999999999994734 0.0 0.0
0.8124999999995063 0.0 0.0
0.8249999999995392 0.0 0.0
0.8374999999995721 0.0 0.0
0.8499999999996051 0.0 0.0
0.862499999999638 0.0 0.0
0.8749999999996709 0.0 0.0
0.8874999999997039 0.0 0.0
0.8999999999997368 0.0 0.0
0.9124999999997697 0.0 0.0
0.9249999999998026 0.0 0.0
0.9374999999998355 0.0 0.0
0.9499999999998684 0.0 0.0
0.9624999999999013 0.0 0.0
0.9749999999999343 0.0 0.0
0.9874999999999672 0.0 0.0
1.0 0.01249999999997639 0.0
1.0 0.02499999999995297 0.0
1.0 0.03749999999992721 0.0
1.0 0.04999999999989927 0.0
1.0 0.0624999999998716 0.0
1.0 0.07499999999985263 0.0
1.0 0.08749999999983366 0.0
1.0 0.09999999999981467 0.0
1.0 0.1124999999997956 0.0
1.0 0.1249999999997765 0.0
1.0 0.1374999999997401 0.0
1.0 0.1499999999997036 0.0
1.0 0.1624999999996672 0.0
1.0 0.1749999999996308 0.0
1.0 0.1874999999995943 0.0
1.0 0.1999999999995579 0.0
1.0 0.2124999999995214 0.0
1.0 0.224999999999485 0.0
1.0 0.2374999999994485 0.0
1.0 0.2499999999994121 0.0
1.0 0.2624999999993757 0.0
1.0 0.2749999999993393 0.0
1.0 0.2874999999993028 0.0
1.0 0.2999999999992664 0.0
1.0 0.3124999999992299 0.0
1.0 0.3249999999991935 0.0
1.0 0.3374999999991571 0.0
1.0 0.3499999999991207 0.0
1.0 0.3624999999990842 0.0
1.0 0.3749999999990478 0.0
1.0 0.3874999999990113 0.0
1.0 0.3999999999989749 0.0
1.0 0.4124999999989398 0.0
1.0 0.4249999999989048 0.0
1.0 0.4374999999988697 0.0
1.0 0.4499999999988346 0.0
1.0 0.4624999999987995 0.0
1.0 0.4749999999987644 0.0
1.0 0.4874999999987293 0.0
1.0 0.4999999999986943 0.0
1.0 0.5124999999987259 0.0
1.0 0.5249999999987575 0.0
1.0 0.5374999999987891 0.0
1.0 0.5499999999988205 0.0
1.0 0.5624999999988521 0.0
1.0 0.5749999999988837 0.0
1.0 0.5874999999989152 0.0
1.0 0.5999999999989468 0.0
1.0 0.6124999999989797 0.0
1.0 0.6249999999990127 0.0
1.0 0.6374999999990456 0.0
1.0 0.6499999999990784 0.0
1.0 0.6624999999991114 0.0
1.0 0.6749999999991443 0.0
1.0 0.6874999999991771 0.0
1.0 0.69999999999921 0.0
1.0 0.712499999999243 0.0
1.0 0.7249999999992759 0.0
1.0 0.7374999999993088 0.0
1.0 0.7499999999993416 0.0
1.0 0.7624999999993746 0.0
1.0 0.7749999999994075 0.0
1.0 0.7874999999994404 0.0
1.0 0.7999999999994734 0.0
1.0 0.8124999999995063 0.0
1.0 0.8249999999995392 0.0
1.0 0.8374999999995721 0.0
1.0 0.8499999999996051 0.0
1.0 0.862499999999638 0.0
1.0 0.8749999999996709 0.0
1.0 0.8874999999997039 0.0
1.0 0.8999999999997368 0.0
1.0 0.9124999999997697 0.0
1.0 0.9249999999998026 0.0
1.0 0.9374999999998355 0.0
1.0 0.9499999999998684 0.0
1.0 0.9624999999999013 0.0
1.0 0.9749999999999343 0.0
1.0 0.9874999999999672 0.0
0.9874999999999439 1.0 0.0
0.9749999999998877 1.0 0.0
0.9624999999998541 1.0 0.0
0.9499999999998356 1.0 0.0
0.9374999999997805 1.0 0.0
0.9249999999996992 1.0 0.0
0.9124999999996414 1.0 0.0
0.8999999999995836 1.0 0.0
0.8874999999996454 1.0 0.0
0.8749999999997078 1.0 0.0
0.8624999999997771 1.0 0.0
0.8499999999998515 1.0 0.0
0.837499999999895 1.0 0.0
0.8249999999999216 1.0 0.0
0.8124999999999571 1.0 0.0
0.7999999999999998 1.0 0.0
0.7875000000000937 1.0 0.0
0.77500000000021 1.0 0.0
0.7625000000002968 1.0 0.0
0.7500000000003858 1.0 0.0
0.7375000000004739 1.0 0.0
0.7250000000005448 1.0 0.0
0.7125000000005861 1.0 0.0
0.7000000000006934 1.0 0.0
0.6875000000008109 1.0 0.0
0.6750000000009306 1.0 0.0
0.6625000000010091 1.0 0.0
0.6500000000010593 1.0 0.0
0.6375000000011386 1.0 0.0
0.6250000000012101 1.0 0.0
0.612500000001312 1.0 0.0
0.6000000000013869 1.0 0.0
0.5875000000014601 1.0 0.0
0.5750000000015277 1.0 0.0
0.5625000000016089 1.0 0.0
0.5500000000016854 1.0 0.0
0.5375000000017889 1.0 0.0
0.5250000000018821 1.0 0.0
0.5125000000019756 1.0 0.0
0.5000000000020587 1.0 0.0
0.4875000000020093 1.0 0.0
0.4750000000019601 1.0 0.0
0.4625000000019108 1.0 0.0
0.4500000000018616 1.0 0.0
0.4375000000018123 1.0 0.0
0.425000000001763 1.0 0.0
0.4125000000017136 1.0 0.0
0.4000000000016644 1.0 0.0
0.3875000000016123 1.0 0.0
0.3750000000015603 1.0 0.0
0.3625000000015083 1.0 0.0
0.3500000000014563 1.0 0.0
0.3375000000014042 1.0 0.0
0.3250000000013522 1.0 0.0
0.3125000000013003 1.0 0.0
0.3000000000012483 1.0 0.0
0.2875000000011962 1.0 0.0
0.2750000000011442 1.0 0.0
0.2625000000010922 1.0 0.0
0.2500000000010403 1.0 0.0
0.2375000000009883 1.0 0.0
0.2250000000009362 1.0 0.0
0.2125000000008842 1.0 0.0
0.2000000000008322 1.0 0.0
0.1875000000007802 1.0 0.0
0.1750000000007281 1.0 0.0
0.1625000000006761 1.0 0.0
0.1500000000006241 1.0 0.0
0.1375000000005721 1.0 0.0
0.12500000000052 1.0 0.0
0.112500000000468 1.0 0.0
0.100000000000416 1.0 0.0
0.08750000000036395 1.0 0.0
0.07500000000031193 1.0 0.0
0.06250000000026001 1.0 0.0
0.05000000000020799 1.0 0.0
0.03750000000015596 1.0 0.0
0.02500000000010394 1.0 0.0
0.01250000000005191 1.0 0.0
0.0 0.9874999999999439 0.0
0.0 0.9749999999998877 0.0
0.0 0.9624999999998541 0.0
0.0 0.9499999999998356 0.0
0.0 0.9374999999997805 0.0
0.0 0.9249999999996992 0.0
0.0 0.9124999999996414 0.0
0.0 0.8999999999995836 0.0
0.0 0.8874999999996454 0.0
0.0 0.8749999999997078 0.0
0.0 0.8624999999997771 0.0
0.0 0.8499999999998515 0.0
0.0 0.837499999999895 0.0
0.0 0.8249999999999216 0.0
0.0 0.8124999999999571 0.0
0.0 0.7999999999999998 0.0
0.0 0.7875000000000937 0.0
0.0 0.77500000000021 0.0
0.0 0.7625000000002968 0.0
0.0 0.7500000000003858 0.0
0.0 0.7375000000004739 0.0
0.0 0.7250000000005448 0.0
0.0 0.7125000000005861 0.0
0.0 0.7000000000006934 0.0
0.0 0.6875000000008109 0.0
0.0 0.6750000000009306 0.0
0.0 0.6625000000010091 0.0
0.0 0.6500000000010593 0.0
0.0 0.6375000000011386 0.0
0.0 0.6250000000012101 0.0
0.0 0.612500000001312 0.0
0.0 0.6000000000013869 0.0
0.0 0.5875000000014601 0.0
0.0 0.5750000000015277 0.0
0.0 0.5625000000016089 0.0
0.0 0.5500000000016854 0.0
0.0 0.5375000000017889 0.0
0.0 0.5250000000018821 0.0
0.0 0.5125000000019756 0.0
0.0 0.5000000000020587 0.0
0.0 0.4875000000020093 0.0
0.0 0.4750000000019601 0.0
0.0 0.4625000000019108 0.0
0.0 0.4500000000018616 0.0
0.0 0.4375000000018123 0.0
0.0 0.425000000001763 0.0
0.0 0.4125000000017136 0.0
0.0 0.4000000000016644 0.0
0.0 0.3875000000016123 0.0
0.0 0.3750000000015603 0.0
0.0 0.3625000000015083 0.0
0.0 0.3500000000014563 0.0
0.0 0.3375000000014042 0.0
0.0 0.3250000000013522 0.0
0.0 0.3125000000013003 0.0
0.0 0.3000000000012483 0.0
0.0 0.2875000000011962 0.0
0.0 0.2750000000011442 0.0
0.0 0.2625000000010922 0.0
0.0 0.2500000000010403 0.0
0.0 0.2375000000009883 0.0
0.0 0.2250000000009362 0.0
0.0 0.2125000000008842 0.0
0.0 0.2000000000008322 0.0
0.0 0.1875000000007802 0.0
0.0 0.1750000000007281 0.0
0.0 0.1625000000006761 0.0
0.0 0.1500000000006241 0.0
0.0 0.1375000000005721 0.0
0.0 0.12500000000052 0.0
0.0 0.112500000000468 0.0
0.0 0.100000000000416 0.0
0.0 0.08750000000036395 0.0
0.0 0.07500000000031193 0.0
0.0 0.06250000000026001 0.0
0.0 0.05000000000020799 0.0
0.0 0.03750000000015596 0.0
0.0 0.02500000000010394 0.0
0.0 0.01250000000005191 0.0
0.499547313951317 0.4984202829398231 0.0
0.7057142553715264 0.7049957919913439 0.0
0.2942617789825218 0.706558362574613 0.0
0.7052750732513358 0.29408370064617073 0.0
0.2941161372558304 0.29425664999463297 0.0
0.49473409022248005 0.7865288457870021 0.0
0.21400675843102512 0.49559804899934157 0.0
0.7879606576561358 0.5053778129282838 0.0
0.505369301426186 0.2119891966328729 0.0
0.8286074034533916 0.8287576993256224 0.0
0.17122528584787128 0.8286011816233976 0.0
0.8287577004551061 0.17139259539200086 0.0
0.17140751986106711 0.17123186221929698 0.0
0.6412438345717256 0.8516520873564006 0.0
0.14868333985619164 0.6419476520576217 0.0
0.36001439100831745 0.8471882363166383 0.0
0.8472916681795735 0.639858398754968 0.0
0.8516551147624887 0.3587551765143301 0.0
0.1529024464427883 0.36006180552290556 0.0
0.3587547979315107 0.148343271772372 0.0
0.6398585806283599 0.15270777331315408 0.0
0.5665851234669081 0.6415505082226679 0.0
0.3688065763014604 0.5781443560211958 0.0
0.6448511073779454 0.4469929790001165 0.0
0.43335085497228876 0.35323599965884955 0.0
0.42653529248703315 0.6555720715037009 0.0
0.6657620768186652 0.5502649260729648 0.0
0.3566111211511165 0.42874186251021185 0.0
0.5447859278293945 0.34262223816401394 0.0
0.4594948214297615 0.8920313032464312 0.0
[...]
POINT_DATA 7905
VECTORS vector double
0.0 0.0 0.0
0.0 0.0 0.0
0.0 0.0 0.0
0.0 0.0 0.0
0.0 0.0 0.0
0.0 0.0 0.0
0.0 0.0 0.0
0.0 0.0 0.0
0.0 0.0 0.0
0.0 0.0 0.0
0.0 0.0 0.0
0.0 0.0 0.0
0.0 0.0 0.0
0.0 0.0 0.0
0.0 0.0 0.0
0.0 0.0 0.0
0.0 0.0 0.0
0.0 0.0 0.0
0.0 0.0 0.0
0.0 0.0 0.0
0.0 0.0 0.0
0.0 0.0 0.0
0.0 0.0 0.0
0.0 0.0 0.0
0.0 0.0 0.0
0.0 0.0 0.0
0.0 0.0 0.0
0.0 0.0 0.0
0.0 0.0 0.0
0.0 0.0 0.0
0.0 0.0 0.0
0.0 0.0 0.0
0.0 0.0 0.0
0.0 0.0 0.0
0.0 0.0 0.0
0.0 0.0 0.0
0.0 0.0 0.0
0.0 0.0 0.0
0.0 0.0 0.0
0.0 0.0 0.0
0.0 0.0 0.0
0.0 0.0 0.0
0.0 0.0 0.0
0.0 0.0 0.0
0.0 0.0 0.0
0.0 0.0 0.0
0.0 0.0 0.0
0.0 0.0 0.0
0.0 0.0 0.0
0.0 0.0 0.0
0.0 0.0 0.0
0.0 0.0 0.0
0.0 0.0 0.0
0.0 0.0 0.0
0.0 0.0 0.0
0.0 0.0 0.0
0.0 0.0 0.0
0.0 0.0 0.0
0.0 0.0 0.0
0.0 0.0 0.0
0.0 0.0 0.0
0.0 0.0 0.0
0.0 0.0 0.0
0.0 0.0 0.0
0.0 0.0 0.0
0.0 0.0 0.0
0.0 0.0 0.0
0.0 0.0 0.0
0.0 0.0 0.0
0.0 0.0 0.0
0.0 0.0 0.0
0.0 0.0 0.0
0.0 0.0 0.0
0.0 0.0 0.0
0.0 0.0 0.0
0.0 0.0 0.0
0.0 0.0 0.0
0.0 0.0 0.0
0.0 0.0 0.0
0.0 0.0 0.0
0.0 0.0 0.0
0.0 0.0 0.0
0.0 0.0 0.0
0.0 0.0 0.0
0.0 0.0 0.0
0.0 0.0 0.0
0.0 0.0 0.0
0.0 0.0 0.0
0.0 0.0 0.0
0.0 0.0 0.0
0.0 0.0 0.0
0.0 0.0 0.0
0.0 0.0 0.0
0.0 0.0 0.0
0.0 0.0 0.0
0.0 0.0 0.0
0.0 0.0 0.0
0.0 0.0 0.0
0.0 0.0 0.0
0.0 0.0 0.0
0.0 0.0 0.0
0.0 0.0 0.0
0.0 0.0 0.0
0.0 0.0 0.0
0.0 0.0 0.0
0.0 0.0 0.0
0.0 0.0 0.0
0.0 0.0 0.0
0.0 0.0 0.0
0.0 0.0 0.0
0.0 0.0 0.0
0.0 0.0 0.0
0.0 0.0 0.0
0.0 0.0 0.0
0.0 0.0 0.0
0.0 0.0 0.0
0.0 0.0 0.0
0.0 0.0 0.0
0.0 0.0 0.0
0.0 0.0 0.0
0.0 0.0 0.0
0.0 0.0 0.0
0.0 0.0 0.0
0.0 0.0 0.0
0.0 0.0 0.0
0.0 0.0 0.0
0.0 0.0 0.0
0.0 0.0 0.0
0.0 0.0 0.0
0.0 0.0 0.0
0.0 0.0 0.0
0.0 0.0 0.0
0.0 0.0 0.0
0.0 0.0 0.0
0.0 0.0 0.0
0.0 0.0 0.0
0.0 0.0 0.0
0.0 0.0 0.0
0.0 0.0 0.0
0.0 0.0 0.0
0.0 0.0 0.0
0.0 0.0 0.0
0.0 0.0 0.0
0.0 0.0 0.0
0.0 0.0 0.0
0.0 0.0 0.0
0.0 0.0 0.0
0.0 0.0 0.0
0.0 0.0 0.0
0.0 0.0 0.0
0.0 0.0 0.0
0.0 0.0 0.0
0.0 0.0 0.0
0.0 0.0 0.0
0.0 0.0 0.0
0.0 0.0 0.0
0.0 0.0 0.0
0.0 0.0 0.0
0.0 0.0 0.0
0.0 0.0 0.0
0.0 0.0 0.0
0.0 0.0 0.0
1.0 0.0 0.0
1.0 0.0 0.0
1.0 0.0 0.0
1.0 0.0 0.0
1.0 0.0 0.0
1.0 0.0 0.0
1.0 0.0 0.0
1.0 0.0 0.0
1.0 0.0 0.0
1.0 0.0 0.0
1.0 0.0 0.0
1.0 0.0 0.0
1.0 0.0 0.0
1.0 0.0 0.0
1.0 0.0 0.0
1.0 0.0 0.0
1.0 0.0 0.0
1.0 0.0 0.0
1.0 0.0 0.0
1.0 0.0 0.0
1.0 0.0 0.0
1.0 0.0 0.0
1.0 0.0 0.0
1.0 0.0 0.0
1.0 0.0 0.0
1.0 0.0 0.0
1.0 0.0 0.0
1.0 0.0 0.0
1.0 0.0 0.0
1.0 0.0 0.0
1.0 0.0 0.0
1.0 0.0 0.0
1.0 0.0 0.0
1.0 0.0 0.0
1.0 0.0 0.0
1.0 0.0 0.0
1.0 0.0 0.0
1.0 0.0 0.0
1.0 0.0 0.0
1.0 0.0 0.0
1.0 0.0 0.0
1.0 0.0 0.0
1.0 0.0 0.0
1.0 0.0 0.0
1.0 0.0 0.0
1.0 0.0 0.0
1.0 0.0 0.0
1.0 0.0 0.0
1.0 0.0 0.0
1.0 0.0 0.0
1.0 0.0 0.0
1.0 0.0 0.0
1.0 0.0 0.0
1.0 0.0 0.0
1.0 0.0 0.0
1.0 0.0 0.0
1.0 0.0 0.0
1.0 0.0 0.0
1.0 0.0 0.0
1.0 0.0 0.0
1.0 0.0 0.0
1.0 0.0 0.0
1.0 0.0 0.0
1.0 0.0 0.0
1.0 0.0 0.0
1.0 0.0 0.0
1.0 0.0 0.0
1.0 0.0 0.0
1.0 0.0 0.0
1.0 0.0 0.0
1.0 0.0 0.0
1.0 0.0 0.0
1.0 0.0 0.0
1.0 0.0 0.0
1.0 0.0 0.0
1.0 0.0 0.0
1.0 0.0 0.0
1.0 0.0 0.0
1.0 0.0 0.0
0.0 0.0 0.0
0.0 0.0 0.0
0.0 0.0 0.0
0.0 0.0 0.0
0.0 0.0 0.0
0.0 0.0 0.0
0.0 0.0 0.0
0.0 0.0 0.0
0.0 0.0 0.0
0.0 0.0 0.0
0.0 0.0 0.0
0.0 0.0 0.0
0.0 0.0 0.0
0.0 0.0 0.0
0.0 0.0 0.0
0.0 0.0 0.0
0.0 0.0 0.0
0.0 0.0 0.0
0.0 0.0 0.0
0.0 0.0 0.0
0.0 0.0 0.0
0.0 0.0 0.0
0.0 0.0 0.0
0.0 0.0 0.0
0.0 0.0 0.0
0.0 0.0 0.0
0.0 0.0 0.0
0.0 0.0 0.0
0.0 0.0 0.0
0.0 0.0 0.0
0.0 0.0 0.0
0.0 0.0 0.0
0.0 0.0 0.0
0.0 0.0 0.0
0.0 0.0 0.0
0.0 0.0 0.0
0.0 0.0 0.0
0.0 0.0 0.0
0.0 0.0 0.0
0.0 0.0 0.0
0.0 0.0 0.0
0.0 0.0 0.0
0.0 0.0 0.0
0.0 0.0 0.0
0.0 0.0 0.0
0.0 0.0 0.0
0.0 0.0 0.0
0.0 0.0 0.0
0.0 0.0 0.0
0.0 0.0 0.0
0.0 0.0 0.0
0.0 0.0 0.0
0.0 0.0 0.0
0.0 0.0 0.0
0.0 0.0 0.0
0.0 0.0 0.0
0.0 0.0 0.0
0.0 0.0 0.0
0.0 0.0 0.0
0.0 0.0 0.0
0.0 0.0 0.0
0.0 0.0 0.0
0.0 0.0 0.0
0.0 0.0 0.0
0.0 0.0 0.0
0.0 0.0 0.0
0.0 0.0 0.0
0.0 0.0 0.0
0.0 0.0 0.0
0.0 0.0 0.0
0.0 0.0 0.0
0.0 0.0 0.0
0.0 0.0 0.0
0.0 0.0 0.0
0.0 0.0 0.0
0.0 0.0 0.0
0.0 0.0 0.0
0.0 0.0 0.0
0.0 0.0 0.0
-0.21337319945 0.0552550464377 0.0
-0.103240037772 -0.161051222427 0.0
-0.0525915452697 0.234063323776 0.0
-0.120581170671 -0.080764837784 0.0
-0.100883437532 0.0696980733416 0.0
0.0873821977737 0.108993431739 0.0
-0.0765992886832 0.175390458224 0.0
-0.186722417552 -0.252568888749 0.0
-0.119496394736 -0.00211399530425 0.0
0.0414510832564 -0.313913735881 0.0
-0.0549047215323 0.244926171313 0.0
-0.0230726045288 -0.0229476987563 0.0
-0.0301982184446 0.0255808878657 0.0
0.28256141712 -0.0098646411468 0.0
-0.0374355482931 0.220484729076 0.0
0.120662422136 0.138616092066 0.0
-0.165104697493 -0.400567991652 0.0
-0.0586892997127 -0.102909559103 0.0
-0.044515292016 0.0949772638362 0.0
-0.0721536964556 0.016397389472 0.0
-0.0716748718467 -0.0209297938821 0.0
-0.139495524257 0.0327461580426 0.0
-0.128542693928 0.181890511278 0.0
-0.233699443371 -0.106066470662 0.0
-0.172239440678 0.0498502540473 0.0
-0.0920934668578 0.168356679235 0.0
-0.24208493727 -0.138114504537 0.0
-0.15330780307 0.117279188584 0.0
-0.189741565283 -0.0176552818591 0.0
0.390060163234 0.061693943022 0.0
-0.0251939155466 0.12020154659 0.0
-0.0802335021958 -0.240919256536 0.0
-0.0796281728339 -0.00410569176776 0.0
0.444051843971 -0.0607886709054 0.0
-0.0271827841031 0.211877498496 0.0
-0.0131555500731 -0.0291815057855 0.0
-0.0345158636021 0.00977664100702 0.0
-0.105915503685 -0.487351966765 0.0
0.16469422644 0.116647546182 0.0
-0.0300822288187 -0.0114309587095 0.0
-0.0175388516874 0.0407147866236 0.0
0.0661353964681 0.0116249497659 0.0
-0.0647703679913 0.226156357596 0.0
-0.156758584407 -0.149485194026 0.0
-0.131095610071 0.0349657461985 0.0
0.00598535274143 0.183057312496 0.0
-0.216318191354 -0.268113150422 0.0
-0.0978967937393 0.121724802084 0.0
-0.134912972573 -0.0380508794614 0.0
0.0716532327936 -0.36721243085 0.0
-0.0804490439842 0.255132688653 0.0
-0.00174468505133 -0.00200830763983 0.0
-0.00512500247857 0.00475914165627 0.0
0.536793697019 0.0159270307317 0.0
-0.0148259927302 0.13820624757 0.0
-0.0311725054132 -0.0991489589514 0.0
-0.0510419876614 0.00300718093589 0.0
-0.128498677476 -0.340067662251 0.0
-0.0123994106109 0.21585220338 0.0
-0.0703413589816 -0.0436468233084 0.0
-0.0602203064227 0.0663705886535 0.0
0.083364153949 -0.131616237802 0.0
-0.0484831355839 0.252972088367 0.0
-0.0632248324108 -0.0709634841459 0.0
-0.0699213516522 0.0369228890076 0.0
-0.161720973321 0.105614409418 0.0
-0.226538115806 -0.0205635126532 0.0
-0.174287444412 0.125409188833 0.0
-0.227473106816 -0.0216718759994 0.0
-0.17391762216 -0.0874099170406 0.0
-0.0815608654564 0.21059854871 0.0
-0.183768696955 -0.0789423350961 0.0
-0.136805384384 0.0835793545628 0.0
0.62405526774 -0.00739432899999 0.0
-0.0105938649063 0.140978976957 0.0
-0.0116518107334 -0.0411419408961 0.0
-0.0349372372119 0.00396165189708 0.0
-0.0622397675645 -0.302752961756 0.0
-0.0353413652383 -0.00569817075397 0.0
0.425429304319 0.0512082041731 0.0
-0.0123884670745 0.0583716301613 0.0
0.406945802924 -0.110210055365 0.0
-0.0471994332041 0.230495722391 0.0
-0.00352948003193 -0.00672027702845 0.0
-0.0131218332403 0.00564386239429 0.0
-0.075499439481 -0.532596811214 0.0
-0.00743984828416 -0.00477058283516 0.0
0.107627488804 0.134198200679 0.0
-0.0072401702418 0.0141556004473 0.0
-0.0530513167441 0.113477115271 0.0
-0.121858749881 0.172570412285 0.0
-0.232078646938 -0.192203499476 0.0
-0.156893137581 0.00431497376452 0.0
0.224332354511 0.0528296085648 0.0
-0.0484502721496 0.193870699884 0.0
-0.107054631356 -0.185772678307 0.0
-0.0915021920864 0.0080648715975 0.0
0.111318327788 0.132111909202 0.0
-0.0616004097731 0.135447200295 0.0
-0.184416256771 -0.325995791859 0.0
-0.0988392372801 -0.0164010060453 0.0
-0.201459313075 0.0574273225342 0.0
-0.203343924486 0.0156594933042 0.0
-0.210110741415 -0.0219511310352 0.0
-0.217349736624 0.0178974048155 0.0
-0.000199950011177 0.000205032996431 0.0
-0.00023538718047 0.000306009205534 0.0
-0.00279951817667 0.00107168718959 0.0
-0.000842854775275 0.000337659117046 0.0
0.368007888625 -0.145619836305 0.0
0.0622356080852 -0.373987071774 0.0
-0.0681323313328 0.26381655041 0.0
-0.0622835826987 0.279042105838 0.0
-0.000920180581978 -0.000240264918817 0.0
-0.00137651765354 0.0020259624657 0.0
-0.0527823450027 -0.517617807291 0.0
0.113642603983 0.148382041234 0.0
-0.185998954962 0.0177964454198 0.0
-0.188611811174 0.0541612582419 0.0
-0.0758286347644 0.1458225683 0.0
-0.0210566296978 0.150778074855 0.0
-0.0535510668337 0.177189781798 0.0
-0.243961307685 -0.171658872595 0.0
-0.235687963984 -0.226058311028 0.0
-0.234648766237 -0.189054419828 0.0
-0.13796376697 0.145398091979 0.0
-0.113232075921 0.151988784486 0.0
-0.127783917796 0.126754092769 0.0
-0.17168466122 -0.00634552116268 0.0
-0.150941562379 -0.0166995813957 0.0
-0.165302490495 -0.0341282242845 0.0
-0.153602945893 0.154940988237 0.0
-0.17601486047 0.120305521457 0.0
-0.147511603772 0.150214546727 0.0
-0.122389298717 0.144226761637 0.0
-0.116872971389 0.17563264081 0.0
-0.244062467302 -0.0696686781391 0.0
-0.236934624584 -0.0222078560941 0.0
-0.232822151949 -0.0624781727334 0.0
-0.246323466172 -0.120248112698 0.0
-0.238392713828 -0.0850229853 0.0
0.013530207355 0.114251112121 0.0
0.035724414636 0.143990696042 0.0
-0.0987556836826 0.178858389721 0.0
-0.0902791211813 0.153494323782 0.0
-0.215180696314 -0.224858887487 0.0
-0.218502319552 -0.271669740734 0.0
-0.139988463424 0.000798761866962 0.0
-0.129452990809 -0.0158627531707 0.0
-0.0547017413149 0.23230139686 0.0
-0.0569509773924 0.244970550356 0.0
-0.0449687794896 0.243189453049 0.0
0.143156529696 -0.00326886548092 0.0
0.0596194055422 -0.0609162531946 0.0
0.186114446294 -0.0556296805004 0.0
-0.0949782119863 0.0252463914782 0.0
-0.0948147279199 0.0391025128103 0.0
-0.0736095261374 0.0260441004436 0.0
-0.100807213279 -0.132395864661 0.0
-0.101305070148 -0.107447581988 0.0
-0.0628987740498 -0.0883122926686 0.0
-0.0511690878843 0.245833003073 0.0
-0.0662571662455 0.237429701028 0.0
-0.024540722038 -0.147066267434 0.0
-0.0458686797643 -0.078138067308 0.0
-0.0875019566631 0.0532896825701 0.0
-0.11196426113 0.0553216152643 0.0
-0.0948504455362 -0.081762781963 0.0
-0.13467466209 -0.106512111993 0.0
-0.171381543195 -0.400804269506 0.0
-0.1810694041 -0.312638252734 0.0
-0.198427760601 -0.354031141298 0.0
0.0418430935078 0.178565156254 0.0
-0.00174847668161 0.202867092859 0.0
0.0479889124745 0.170671889384 0.0
-0.0727181495723 -0.0317124810832 0.0
-0.100222759442 -0.0463100008763 0.0
-0.0969426421934 -0.0311901699167 0.0
-0.0533727238428 0.0818856625672 0.0
-0.078023703948 0.0914853274482 0.0
-0.0682489407006 0.108422872051 0.0
-0.178927262479 0.0927860346016 0.0
-0.167317844908 0.0841617415355 0.0
0.652422026606 0.0188239775814 0.0
0.678353657727 0.0149240687744 0.0
-0.0063666277453 0.0602048757004 0.0
-0.00644488296043 0.0744442339781 0.0
-0.0230621041461 -0.147392977466 0.0
-0.019170335096 -0.109222117545 0.0
-0.0351471060291 -0.00157098284759 0.0
-0.0384874718413 -0.000533038095762 0.0
-0.0209350131264 -0.168327195043 0.0
-0.0711523356598 -0.277966362122 0.0
-0.0257995276601 -0.00170694233923 0.0
-0.0485526241132 -0.00597751351643 0.0
0.667794981001 0.0167944104027 0.0
0.398344234299 0.0567399807074 0.0
-0.00450581423311 0.0411021438491 0.0
-0.0176361466789 0.0820958984553 0.0
-0.233258256828 -0.151201598592 0.0
-0.166662119324 0.022592062984 0.0
-0.172088331625 -0.219949138122 0.0
-0.116203951345 -0.241137571723 0.0
-0.0362585254028 0.215861595082 0.0
-0.0344100221511 0.230219075959 0.0
-0.12724542149 -0.0624091722314 0.0
-0.095851421544 -0.0625272722129 0.0
-0.100946249822 0.0907717482884 0.0
-0.082210888866 0.0708127826921 0.0
-0.0855754981716 0.191736164319 0.0
-0.10362127044 0.201086326325 0.0
-0.144571657949 0.100795246742 0.0
-0.153930013612 0.0709699324546 0.0
-0.189777489802 0.0943729687834 0.0
-0.164529567474 0.125148039894 0.0
-0.197599982444 0.0768139660428 0.0
-0.196352872619 0.091190553127 0.0
-0.225897923361 0.0187741132967 0.0
-0.221612607331 0.0256027227914 0.0
-0.129768343719 -0.341162339225 0.0
-0.114751431733 -0.381543143255 0.0
-0.0694900800566 -0.0118470633201 0.0
-0.0521135850244 -0.0119072675642 0.0
0.223838535569 0.0996596713265 0.0
0.244466723395 0.0943765105808 0.0
-0.0355871694736 0.107412234668 0.0
-0.0257334294748 0.0788912088509 0.0
0.724141256266 -0.0146852825759 0.0
0.680147758956 -0.0257519709386 0.0
-0.00732181054353 0.118429585091 0.0
-0.011627022345 0.138470076489 0.0
-0.0021397305854 -0.0111974342571 0.0
-0.00180638554038 -0.00654414695525 0.0
-0.0192250421442 0.00205688536389 0.0
-0.0148157836212 0.0022825429873 0.0
-0.0420421391602 -0.373415214552 0.0
-0.0359652940544 -0.302735570907 0.0
-0.0113134410673 -0.00248770613676 0.0
-0.017172485318 -0.00261644798419 0.0
0.45406883347 0.0431449020634 0.0
0.531024103576 0.0319127933923 0.0
-0.00395453975583 0.0167500629154 0.0
-0.0044944400872 0.024590567864 0.0
0.467893123002 0.0336978650757 0.0
0.734658118099 0.00804065116321 0.0
-0.0191588184751 0.131109860628 0.0
-0.0046651848858 0.0782270461185 0.0
-0.0487600647042 -0.152471146932 0.0
-0.0121089873497 -0.0671240198159 0.0
-0.0586338182365 0.000701885418748 0.0
-0.0335888155819 0.000379758847224 0.0
-0.141576163422 -0.449405164532 0.0
-0.134267682464 -0.442885846737 0.0
0.126760819133 0.134525694866 0.0
0.027798480125 0.183300307872 0.0
-0.0502784315548 -0.018372929533 0.0
-0.0478321164765 -0.0263061671794 0.0
-0.0314290905763 0.0677541150814 0.0
-0.0380863053601 0.056549215289 0.0
0.15413434894 0.078173594745 0.0
0.279035380483 0.0633567418 0.0
0.184839379547 0.094389177625 0.0
-0.0613373560233 0.188257843079 0.0
-0.0394205947956 0.164364692768 0.0
-0.0528296318265 0.159048907881 0.0
-0.144966907751 -0.222004733688 0.0
-0.0996075038975 -0.21163684657 0.0
-0.144122402 -0.265776696415 0.0
-0.105521612786 0.00502064169369 0.0
-0.0824419581511 0.00107363260171 0.0
-0.0952729274049 -0.00424139960528 0.0
-0.1529087484 -0.0180038311937 0.0
-0.0968911908603 -0.039625464999 0.0
-0.0830917525656 0.0248275147943 0.0
-0.0853541928919 0.221770149961 0.0
-0.1050202541 0.20661333002 0.0
-0.210059176021 -0.0945944520463 0.0
-0.176161680105 -0.112561751217 0.0
-0.205973272021 -0.135569849105 0.0
-0.13506712787 0.060218944791 0.0
-0.151389441771 0.0437460164323 0.0
0.22970703152 -0.154357466812 0.0
0.226180687533 -0.104466069483 0.0
0.0772775636989 -0.210482679235 0.0
-0.0501023347064 0.251822167099 0.0
-0.0426921846039 0.248069150698 0.0
-0.0497835571593 0.253617622713 0.0
-0.0196838703368 -0.0292667795777 0.0
-0.0351213079578 -0.0525242103775 0.0
-0.0391920467916 -0.043540790722 0.0
-0.0349453569822 0.0181509959214 0.0
-0.0521470411325 0.0223935429226 0.0
-0.0488914665687 0.0324579647291 0.0
-0.137303890516 -0.124634123745 0.0
-0.0650037213488 0.223917062399 0.0
-0.151328751186 -0.0850462215823 0.0
-0.119533265586 0.0776077743632 0.0
-0.187243997899 0.00995087463014 0.0
-0.206941201213 -0.052197474467 0.0
-0.220820255005 -0.120688804614 0.0
-0.212108299141 -0.0573612237162 0.0
-0.187662598085 -0.0486989627006 0.0
0.773088984043 0.00290170978534 0.0
-0.00339493018275 0.0792846283781 0.0
-0.00776701379455 -0.03903614268 0.0
-0.0276439935632 0.000779428743477 0.0
0.104458748101 0.125675196243 0.0
0.0601320466235 0.153561421355 0.0
-0.187042093206 -0.296583127409 0.0
-0.207382843787 -0.318987419873 0.0
-0.0682808874084 0.151239523995 0.0
-0.0755081089456 0.132641421026 0.0
-0.108342292672 -0.0119162856254 0.0
-0.111010179585 -0.0232319079177 0.0
0.423457621614 -0.0903966943776 0.0
0.650088772709 -0.034899457849 0.0
-0.0370774794135 0.221940861403 0.0
-0.0172546493118 0.152963121409 0.0
-0.00693887362831 -0.0143167507138 0.0
-0.00101803050749 -0.00237193410299 0.0
-0.0215043248792 0.00792454257625 0.0
-0.00907314263858 0.00171450190084 0.0
-0.041335064274 -0.411835161684 0.0
-0.0901612484609 -0.520888789785 0.0
-0.00554814316945 -0.00148046604159 0.0
-0.0151669011439 -0.00796569157917 0.0
0.416729265971 0.0499529495369 0.0
0.124551186596 0.127814836656 0.0
-0.00258122577588 0.00919667710763 0.0
-0.0115626828684 0.0241122213598 0.0
-0.031400062769 0.222634892229 0.0
0.347421046413 -0.0426294390615 0.0
-0.0537126598152 0.0148275722513 0.0
-0.0323515582834 -0.0623956418199 0.0
-0.0586356489168 -0.343994991689 0.0
-0.0923364142218 -0.463534578378 0.0
-0.0322275482255 0.229173051517 0.0
0.00235162256135 0.192413609043 0.0
-0.0440296973599 -0.0350967892695 0.0
-0.0280125359129 -0.018997450939 0.0
-0.0443601341311 0.0444103794644 0.0
-0.0260438674362 0.0360847953289 0.0
-0.000545653230766 -0.000451281239967 0.0
0.562192770669 -0.0605756209909 0.0
-0.00534654346333 0.00138429267715 0.0
-0.0326125874341 0.193418491388 0.0
-0.048816024116 -0.473753639203 0.0
-0.00244728890993 -0.000816417046526 0.0
0.308753632139 0.0760961959278 0.0
-0.00187341920396 0.00470395479701 0.0
0.350032051541 0.0361641711779 0.0
-0.031474146568 0.174745348584 0.0
-0.068259662599 -0.15334782603 0.0
-0.0729502401831 0.00539988376646 0.0
-0.00313831425075 -0.0045904788182 0.0
-0.00984009230074 0.00606489897514 0.0
0.257057723736 -0.199760415022 0.0
-0.0735478800711 0.25949193415 0.0
-0.0446409628437 -0.501991975868 0.0
-0.004748851431 -0.00411349015627 0.0
-0.00676874143406 0.191141845836 0.0
-0.00706674326707 0.00978627078978 0.0
-0.0332777662904 -0.236637207641 0.0
-0.0415782925924 0.243841012634 0.0
-0.0657549533249 -0.056230015148 0.0
-0.0651350344143 0.0503991779642 0.0
-0.023711769921 0.071392270382 0.0
-0.0969013625228 0.0727713062005 0.0
-0.102326840356 0.199504422239 0.0
-0.127586749868 0.182134205691 0.0
-0.206872358466 -0.178589871448 0.0
-0.145613821497 0.0212522886608 0.0
0.179810711686 0.10793785774 0.0
-0.0484694551882 0.13428538481 0.0
0.117109707063 0.136083168964 0.0
-0.0552055014322 0.119300552219 0.0
-0.150679956265 -0.312341188743 0.0
-0.0870086141022 -0.0107991317174 0.0
-0.178253017463 -0.355454198386 0.0
-0.0887432112599 -0.0192828016325 0.0
0.77986364709 -0.00584377309449 0.0
0.548119979984 -0.0228837490163 0.0
-0.00421045333503 0.0917203063824 0.0
-0.0162674849883 0.173138315822 0.0
0.310488151093 0.0746847733551 0.0
0.449638075692 -0.0102143188788 0.0
-0.0220828966762 0.188694636516 0.0
-0.0851726495841 -0.394096792101 0.0
-0.0147585964855 0.0511828301919 0.0
-0.0335309607722 -0.00828191558577 0.0
0.63356858492 0.0198202783439 0.0
-0.0243706872391 -0.214609084232 0.0
-0.00394559845485 0.0303560624706 0.0
-0.020273870395 -0.00189384035106 0.0
-0.00219950090601 -0.0137881709541 0.0
-0.0124604829257 -0.0370093303678 0.0
-0.0199951013339 0.00127612862425 0.0
-0.0360859239638 0.00634468897645 0.0
-0.0289688638642 -0.0703314717991 0.0
-0.0519931458326 0.00891868685951 0.0
0.0600273151411 0.0755720861224 0.0
-0.0814837357036 0.20161199561 0.0
-0.17775655441 -0.203050161162 0.0
-0.126011044852 0.0134105263265 0.0
-0.114908032703 0.110300981535 0.0
-0.154833200384 0.0663058673094 0.0
-0.148097299476 0.154029550481 0.0
0.220999920763 -0.19752613018 0.0
-0.0629142013045 0.254966188391 0.0
-0.0551225923982 -0.471530530996 0.0
-0.0100449109124 -0.0146053805588 0.0
-0.0193330685497 0.20046177589 0.0
-0.0211845856391 0.0128604398892 0.0
-0.0140186003023 -0.0113071765695 0.0
-0.0161518684156 0.0212173596738 0.0
0.244660321307 0.025294776889 0.0
0.131286484762 0.0447520776223 0.0
-0.0441262089158 0.209279132451 0.0
-0.0630676884981 0.213879483574 0.0
-0.132265643293 -0.176869898916 0.0
-0.0857886313578 -0.146008994627 0.0
-0.0852977279284 0.01349185766 0.0
-0.107089141772 0.0170176549783 0.0
-0.0548997400174 0.203363120014 0.0
-0.201875628847 -0.173535235294 0.0
-0.121879750138 0.102770249915 0.0
-0.158023235696 -0.0589094534482 0.0
0.0642490112138 -0.345546318356 0.0
-0.0713363827432 0.246317993501 0.0
-0.00843993455903 -0.00943431929267 0.0
-0.0146810756145 0.0133764368452 0.0
-0.197041661789 0.046073746669 0.0
0.58424302704 0.00229771543937 0.0
0.795959497855 -0.00119444839073 0.0
-0.0121731005108 0.142235403869 0.0
-0.00302824765467 0.0795281620448 0.0
0.39582811132 0.0121326634329 0.0
-0.0265676882646 0.185336677217 0.0
-0.0198197550232 -0.0643711114311 0.0
-0.00427472406104 -0.0209547992834 0.0
-0.0432073404512 0.00400736150162 0.0
-0.0222470211445 0.000911182003257 0.0