# vtk DataFile Version 2.0
2D Simulation Python
ASCII
DATASET UNSTRUCTURED_GRID
FIELD FieldData 1
NODES 1 2 int
7905 15488

POINTS 7905 double
0.0 0.0 0.0
1.0 0.0 0.0
1.0 1.0 0.0
0.0 1.0 0.0
0.01249999999997639 0.0 0.0
0.02499999999995297 0.0 0.0
0.03749999999992721 0.0 0.0
0.04999999999989927 0.0 0.0
0.0624999999998716 0.0 0.0
0.07499999999985263 0.0 0.0
0.08749999999983366 0.0 0.0
0.09999999999981467 0.0 0.0
0.1124999999997956 0.0 0.0
0.1249999999997765 0.0 0.0
0.1374999999997401 0.0 0.0
0.1499999999997036 0.0 0.0
0.1624999999996672 0.0 0.0
0.1749999999996308 0.0 0.0
0.1874999999995943 0.0 0.0
0.1999999999995579 0.0 0.0
0.2124999999995214 0.0 0.0
0.224999999999485 0.0 0.0
0.2374999999994485 0.0 0.0
0.2499999999994121 0.0 0.0
0.2624999999993757 0.0 0.0
0.2749999999993393 0.0 0.0
0.2874999999993028 0.0 0.0
0.2999999999992664 0.0 0.0
0.3124999999992299 0.0 0.0
0.3249999999991935 0.0 0.0
0.3374999999991571 0.0 0.0
0.3499999999991207 0.0 0.0
0.3624999999990842 0.0 0.0
0.3749999999990478 0.0 0.0
0.3874999999990113 0.0 0.0
0.3999999999989749 0.0 0.0
0.4124999999989398 0.0 0.0
0.4249999999989048 0.0 0.0
0.4374999999988697 0.0 0.0
0.4499999999988346 0.0 0.0
0.4624999999987995 0.0 0.0
0.4749999999987644 0.0 0.0
0.4874999999987293 0.0 0.0
0.4999999999986943 0.0 0.0
0.5124999999987259 0.0 0.0
0.5249999999987575 0.0 0.0
0.5374999999987891 0.0 0.0
0.5499999999988205 0.0 0.0
0.5624999999988521 0.0 0.0
0.5749999999988837 0.0 0.0
0.5874999999989152 0.0 0.0
0.5999999999989468 0.0 0.0
0.6124999999989797 0.0 0.0
0.6249999999990127 0.0 0.0
0.6374999999990456 0.0 0.0
0.6499999999990784 0.0 0.0
0.6624999999991114 0.0 0.0
0.6749999999991443 0.0 0.0
0.6874999999991771 0.0 0.0
0.69999999999921 0.0 0.0
0.712499999999243 0.0 0.0
0.7249999999992759 0.0 0.0
0.7374999999993088 0.0 0.0
0.7499999999993416 0.0 0.0
0.7624999999993746 0.0 0.0
0.7749999999994075 0.0 0.0
0.7874999999994404 0.0 0.0
0.7999999999994734 0.0 0.0
0.8124999999995063 0.0 0.0
0.8249999999995392 0.0 0.0
0.8374999999995721 0.0 0.0
0.8499999999996051 0.0 0.0
0.862499999999638 0.0 0.0
0.8749999999996709 0.0 0.0
0.8874999999997039 0.0 0.0
0.8999999999997368 0.0 0.0
0.9124999999997697 0.0 0.0
0.9249999999998026 0.0 0.0
0.9374999999998355 0.0 0.0
0.9499999999998684 0.0 0.0
0.9624999999999013 0.0 0.0
0.9749999999999343 0.0 0.0
0.9874999999999672 0.0 0.0
1.0 0.01249999999997639 0.0
1.0 0.02499999999995297 0.0
1.0 0.03749999999992721 0.0
1.0 0.04999999999989927 0.0
1.0 0.0624999999998716 0.0
1.0 0.07499999999985263 0.0
1.0 0.08749999999983366 0.0
1.0 0.09999999999981467 0.0
1.0 0.1124999999997956 0.0
1.0 0.1249999999997765 0.0
1.0 0.1374999999997401 0.0
1.0 0.1499999999997036 0.0
1.0 0.1624999999996672 0.0
1.0 0.1749999999996308 0.0
1.0 0.1874999999995943 0.0
1.0 0.1999999999995579 0.0
1.0 0.2124999999995214 0.0
1.0 0.224999999999485 0.0
1.0 0.2374999999994485 0.0
1.0 0.2499999999994121 0.0
1.0 0.2624999999993757 0.0
1.0 0.2749999999993393 0.0
1.0 0.2874999999993028 0.0
1.0 0.2999999999992664 0.0
1.0 0.3124999999992299 0.0
1.0 0.3249999999991935 0.0
1.0 0.3374999999991571 0.0
1.0 0.3499999999991207 0.0
1.0 0.3624999999990842 0.0
1.0 0.3749999999990478 0.0
1.0 0.3874999999990113 0.0
1.0 0.3999999999989749 0.0
1.0 0.4124999999989398 0.0
1.0 0.4249999999989048 0.0
1.0 0.4374999999988697 0.0
1.0 0.4499999999988346 0.0
1.0 0.4624999999987995 0.0
1.0 0.4749999999987644 0.0
1.0 0.4874999999987293 0.0
1.0 0.4999999999986943 0.0
1.0 0.5124999999987259 0.0
1.0 0.5249999999987575 0.0
1.0 0.5374999999987891 0.0
1.0 0.5499999999988205 0.0
1.0 0.5624999999988521 0.0
1.0 0.5749999999988837 0.0
1.0 0.5874999999989152 0.0
1.0 0.5999999999989468 0.0
1.0 0.6124999999989797 0.0
1.0 0.6249999999990127 0.0
1.0 0.6374999999990456 0.0
1.0 0.6499999999990784 0.0
1.0 0.6624999999991114 0.0
1.0 0.6749999999991443 0.0
1.0 0.6874999999991771 0.0
1.0 0.69999999999921 0.0
1.0 0.712499999999243 0.0
1.0 0.7249999999992759 0.0
1.0 0.7374999999993088 0.0
1.0 0.7499999999993416 0.0
1.0 0.7624999999993746 0.0
1.0 0.7749999999994075 0.0
1.0 0.7874999999994404 0.0
1.0 0.7999999999994734 0.0
1.0 0.8124999999995063 0.0
1.0 0.8249999999995392 0.0
1.0 0.8374999999995721 0.0
1.0 0.8499999999996051 0.0
1.0 0.862499999999638 0.0
1.0 0.8749999999996709 0.0
1.0 0.8874999999997039 0.0
1.0 0.8999999999997368 0.0
1.0 0.9124999999997697 0.0
1.0 0.9249999999998026 0.0
1.0 0.9374999999998355 0.0
1.0 0.9499999999998684 0.0
1.0 0.9624999999999013 0.0
1.0 0.9749999999999343 0.0
1.0 0.9874999999999672 0.0
0.9874999999999439 1.0 0.0
0.9749999999998877 1.0 0.0
0.9624999999998541 1.0 0.0
0.9499999999998356 1.0 0.0
0.9374999999997805 1.0 0.0
0.9249999999996992 1.0 0.0
0.9124999999996414 1.0 0.0
0.8999999999995836 1.0 0.0
0.8874999999996454 1.0 0.0
0.8749999999997078 1.0 0.0
0.8624999999997771 1.0 0.0
0.8499999999998515 1.0 0.0
0.837499999999895 1.0 0.0
0.8249999999999216 1.0 0.0
0.8124999999999571 1.0 0.0
0.7999999999999998 1.0 0.0
0.7875000000000937 1.0 0.0
0.77500000000021 1.0 0.0
0.7625000000002968 1.0 0.0
0.7500000000003858 1.0 0.0
0.7375000000004739 1.0 0.0
0.7250000000005448 1.0 0.0
0.7125000000005861 1.0 0.0
0.7000000000006934 1.0 0.0
0.6875000000008109 1.0 0.0
0.6750000000009306 1.0 0.0
0.6625000000010091 1.0 0.0
0.6500000000010593 1.0 0.0
0.6375000000011386 1.0 0.0
0.6250000000012101 1.0 0.0
0.612500000001312 1.0 0.0
0.6000000000013869 1.0 0.0
0.5875000000014601 1.0 0.0
0.5750000000015277 1.0 0.0
0.5625000000016089 1.0 0.0
0.5500000000016854 1.0 0.0
0.5375000000017889 1.0 0.0
0.5250000000018821 1.0 0.0
0.5125000000019756 1.0 0.0
0.5000000000020587 1.0 0.0
0.4875000000020093 1.0 0.0
0.4750000000019601 1.0 0.0
0.4625000000019108 1.0 0.0
0.4500000000018616 1.0 0.0
0.4375000000018123 1.0 0.0
0.425000000001763 1.0 0.0
0.4125000000017136 1.0 0.0
0.4000000000016644 1.0 0.0
0.3875000000016123 1.0 0.0
0.3750000000015603 1.0 0.0
0.3625000000015083 1.0 0.0
0.3500000000014563 1.0 0.0
0.3375000000014042 1.0 0.0
0.3250000000013522 1.0 0.0
0.3125000000013003 1.0 0.0
0.3000000000012483 1.0 0.0
0.2875000000011962 1.0 0.0
0.2750000000011442 1.0 0.0
0.2625000000010922 1.0 0.0
0.2500000000010403 1.0 0.0
0.2375000000009883 1.0 0.0
0.2250000000009362 1.0 0.0
0.2125000000008842 1.0 0.0
0.2000000000008322 1.0 0.0
0.1875000000007802 1.0 0.0
0.1750000000007281 1.0 0.0
0.1625000000006761 1.0 0.0
0.1500000000006241 1.0 0.0
0.1375000000005721 1.0 0.0
0.12500000000052 1.0 0.0
0.112500000000468 1.0 0.0
0.100000000000416 1.0 0.0
0.08750000000036395 1.0 0.0
0.07500000000031193 1.0 0.0
0.06250000000026001 1.0 0.0
0.05000000000020799 1.0 0.0
0.03750000000015596 1.0 0.0
0.02500000000010394 1.0 0.0
0.01250000000005191 1.0 0.0
0.0 0.9874999999999439 0.0
0.0 0.9749999999998877 0.0
0.0 0.9624999999998541 0.0
0.0 0.9499999999998356 0.0
0.0 0.9374999999997805 0.0
0.0 0.9249999999996992 0.0
0.0 0.9124999999996414 0.0
0.0 0.8999999999995836 0.0
0.0 0.8874999999996454 0.0
0.0 0.8749999999997078 0.0
0.0 0.8624999999997771 0.0
0.0 0.8499999999998515 0.0
0.0 0.837499999999895 0.0
0.0 0.8249999999999216 0.0
0.0 0.8124999999999571 0.0
0.0 0.7999999999999998 0.0
0.0 0.7875000000000937 0.0
0.0 0.77500000000021 0.0
0.0 0.7625000000002968 0.0
0.0 0.7500000000003858 0.0
0.0 0.7375000000004739 0.0
0.0 0.7250000000005448 0.0
0.0 0.7125000000005861 0.0
0.0 0.7000000000006934 0.0
0.0 0.6875000000008109 0.0
0.0 0.6750000000009306 0.0
0.0 0.6625000000010091 0.0
0.0 0.6500000000010593 0.0
0.0 0.6375000000011386 0.0
0.0 0.6250000000012101 0.0
0.0 0.612500000001312 0.0
0.0 0.6000000000013869 0.0
0.0 0.5875000000014601 0.0
0.0 0.5750000000015277 0.0
0.0 0.5625000000016089 0.0
0.0 0.5500000000016854 0.0
0.0 0.5375000000017889 0.0
0.0 0.5250000000018821 0.0
0.0 0.5125000000019756 0.0
0.0 0.5000000000020587 0.0
0.0 0.4875000000020093 0.0
0.0 0.4750000000019601 0.0
0.0 0.4625000000019108 0.0
0.0 0.4500000000018616 0.0
0.0 0.4375000000018123 0.0
0.0 0.425000000001763 0.0
0.0 0.4125000000017136 0.0
0.0 0.4000000000016644 0.0
0.0 0.3875000000016123 0.0
0.0 0.3750000000015603 0.0
0.0 0.3625000000015083 0.0
0.0 0.3500000000014563 0.0
0.0 0.3375000000014042 0.0
0.0 0.3250000000013522 0.0
0.0 0.3125000000013003 0.0
0.0 0.3000000000012483 0.0
0.0 0.2875000000011962 0.0
0.0 0.2750000000011442 0.0
0.0 0.2625000000010922 0.0
0.0 0.2500000000010403 0.0
0.0 0.2375000000009883 0.0
0.0 0.2250000000009362 0.0
0.0 0.2125000000008842 0.0
0.0 0.2000000000008322 0.0
0.0 0.1875000000007802 0.0
0.0 0.1750000000007281 0.0
0.0 0.1625000000006761 0.0
0.0 0.1500000000006241 0.0
0.0 0.1375000000005721 0.0
0.0 0.12500000000052 0.0
0.0 0.112500000000468 0.0
0.0 0.100000000000416 0.0
0.0 0.08750000000036395 0.0
0.0 0.07500000000031193 0.0
0.0 0.06250000000026001 0.0
0.0 0.05000000000020799 0.0
0.0 0.03750000000015596 0.0
0.0 0.02500000000010394 0.0
0.0 0.01250000000005191 0.0
0.499547313951317 0.4984202829398231 0.0
0.7057142553715264 0.7049957919913439 0.0
0.2942617789825218 0.706558362574613 0.0
0.7052750732513358 0.29408370064617073 0.0
0.2941161372558304 0.29425664999463297 0.0
0.49473409022248005 0.7865288457870021 0.0
0.21400675843102512 0.49559804899934157 0.0
0.7879606576561358 0.5053778129282838 0.0
0.505369301426186 0.2119891966328729 0.0
0.8286074034533916 0.8287576993256224 0.0
0.17122528584787128 0.8286011816233976 0.0
0.8287577004551061 0.17139259539200086 0.0
0.17140751986106711 0.17123186221929698 0.0
0.6412438345717256 0.8516520873564006 0.0
0.14868333985619164 0.6419476520576217 0.0
0.36001439100831745 0.8471882363166383 0.0
0.8472916681795735 0.639858398754968 0.0
0.8516551147624887 0.3587551765143301 0.0
0.1529024464427883 0.36006180552290556 0.0
0.3587547979315107 0.148343271772372 0.0
0.6398585806283599 0.15270777331315408 0.0
0.5665851234669081 0.6415505082226679 0.0
0.3688065763014604 0.5781443560211958 0.0
0.6448511073779454 0.4469929790001165 0.0
0.43335085497228876 0.35323599965884955 0.0
0.42653529248703315 0.6555720715037009 0.0
0.6657620768186652 0.5502649260729648 0.0
0.3566111211511165 0.42874186251021185 0.0
0.5447859278293945 0.34262223816401394 0.0
0.4594948214297615 0.8920313032464312 0.0
[...]
POINT_DATA 7905
VECTORS vector double
0.0 0.0 0.0
0.0 0.0 0.0
0.0 0.0 0.0
0.0 0.0 0.0
0.0 0.0 0.0
0.0 0.0 0.0
0.0 0.0 0.0
0.0 0.0 0.0
0.0 0.0 0.0
0.0 0.0 0.0
0.0 0.0 0.0
0.0 0.0 0.0
0.0 0.0 0.0
0.0 0.0 0.0
0.0 0.0 0.0
0.0 0.0 0.0
0.0 0.0 0.0
0.0 0.0 0.0
0.0 0.0 0.0
0.0 0.0 0.0
0.0 0.0 0.0
0.0 0.0 0.0
0.0 0.0 0.0
0.0 0.0 0.0
0.0 0.0 0.0
0.0 0.0 0.0
0.0 0.0 0.0
0.0 0.0 0.0
0.0 0.0 0.0
0.0 0.0 0.0
0.0 0.0 0.0
0.0 0.0 0.0
0.0 0.0 0.0
0.0 0.0 0.0
0.0 0.0 0.0
0.0 0.0 0.0
0.0 0.0 0.0
0.0 0.0 0.0
0.0 0.0 0.0
0.0 0.0 0.0
0.0 0.0 0.0
0.0 0.0 0.0
0.0 0.0 0.0
0.0 0.0 0.0
0.0 0.0 0.0
0.0 0.0 0.0
0.0 0.0 0.0
0.0 0.0 0.0
0.0 0.0 0.0
0.0 0.0 0.0
0.0 0.0 0.0
0.0 0.0 0.0
0.0 0.0 0.0
0.0 0.0 0.0
0.0 0.0 0.0
0.0 0.0 0.0
0.0 0.0 0.0
0.0 0.0 0.0
0.0 0.0 0.0
0.0 0.0 0.0
0.0 0.0 0.0
0.0 0.0 0.0
0.0 0.0 0.0
0.0 0.0 0.0
0.0 0.0 0.0
0.0 0.0 0.0
0.0 0.0 0.0
0.0 0.0 0.0
0.0 0.0 0.0
0.0 0.0 0.0
0.0 0.0 0.0
0.0 0.0 0.0
0.0 0.0 0.0
0.0 0.0 0.0
0.0 0.0 0.0
0.0 0.0 0.0
0.0 0.0 0.0
0.0 0.0 0.0
0.0 0.0 0.0
0.0 0.0 0.0
0.0 0.0 0.0
0.0 0.0 0.0
0.0 0.0 0.0
0.0 0.0 0.0
0.0 0.0 0.0
0.0 0.0 0.0
0.0 0.0 0.0
0.0 0.0 0.0
0.0 0.0 0.0
0.0 0.0 0.0
0.0 0.0 0.0
0.0 0.0 0.0
0.0 0.0 0.0
0.0 0.0 0.0
0.0 0.0 0.0
0.0 0.0 0.0
0.0 0.0 0.0
0.0 0.0 0.0
0.0 0.0 0.0
0.0 0.0 0.0
0.0 0.0 0.0
0.0 0.0 0.0
0.0 0.0 0.0
0.0 0.0 0.0
0.0 0.0 0.0
0.0 0.0 0.0
0.0 0.0 0.0
0.0 0.0 0.0
0.0 0.0 0.0
0.0 0.0 0.0
0.0 0.0 0.0
0.0 0.0 0.0
0.0 0.0 0.0
0.0 0.0 0.0
0.0 0.0 0.0
0.0 0.0 0.0
0.0 0.0 0.0
0.0 0.0 0.0
0.0 0.0 0.0
0.0 0.0 0.0
0.0 0.0 0.0
0.0 0.0 0.0
0.0 0.0 0.0
0.0 0.0 0.0
0.0 0.0 0.0
0.0 0.0 0.0
0.0 0.0 0.0
0.0 0.0 0.0
0.0 0.0 0.0
0.0 0.0 0.0
0.0 0.0 0.0
0.0 0.0 0.0
0.0 0.0 0.0
0.0 0.0 0.0
0.0 0.0 0.0
0.0 0.0 0.0
0.0 0.0 0.0
0.0 0.0 0.0
0.0 0.0 0.0
0.0 0.0 0.0
0.0 0.0 0.0
0.0 0.0 0.0
0.0 0.0 0.0
0.0 0.0 0.0
0.0 0.0 0.0
0.0 0.0 0.0
0.0 0.0 0.0
0.0 0.0 0.0
0.0 0.0 0.0
0.0 0.0 0.0
0.0 0.0 0.0
0.0 0.0 0.0
0.0 0.0 0.0
0.0 0.0 0.0
0.0 0.0 0.0
0.0 0.0 0.0
0.0 0.0 0.0
0.0 0.0 0.0
0.0 0.0 0.0
0.0 0.0 0.0
0.0 0.0 0.0
0.0 0.0 0.0
1.0 0.0 0.0
1.0 0.0 0.0
1.0 0.0 0.0
1.0 0.0 0.0
1.0 0.0 0.0
1.0 0.0 0.0
1.0 0.0 0.0
1.0 0.0 0.0
1.0 0.0 0.0
1.0 0.0 0.0
1.0 0.0 0.0
1.0 0.0 0.0
1.0 0.0 0.0
1.0 0.0 0.0
1.0 0.0 0.0
1.0 0.0 0.0
1.0 0.0 0.0
1.0 0.0 0.0
1.0 0.0 0.0
1.0 0.0 0.0
1.0 0.0 0.0
1.0 0.0 0.0
1.0 0.0 0.0
1.0 0.0 0.0
1.0 0.0 0.0
1.0 0.0 0.0
1.0 0.0 0.0
1.0 0.0 0.0
1.0 0.0 0.0
1.0 0.0 0.0
1.0 0.0 0.0
1.0 0.0 0.0
1.0 0.0 0.0
1.0 0.0 0.0
1.0 0.0 0.0
1.0 0.0 0.0
1.0 0.0 0.0
1.0 0.0 0.0
1.0 0.0 0.0
1.0 0.0 0.0
1.0 0.0 0.0
1.0 0.0 0.0
1.0 0.0 0.0
1.0 0.0 0.0
1.0 0.0 0.0
1.0 0.0 0.0
1.0 0.0 0.0
1.0 0.0 0.0
1.0 0.0 0.0
1.0 0.0 0.0
1.0 0.0 0.0
1.0 0.0 0.0
1.0 0.0 0.0
1.0 0.0 0.0
1.0 0.0 0.0
1.0 0.0 0.0
1.0 0.0 0.0
1.0 0.0 0.0
1.0 0.0 0.0
1.0 0.0 0.0
1.0 0.0 0.0
1.0 0.0 0.0
1.0 0.0 0.0
1.0 0.0 0.0
1.0 0.0 0.0
1.0 0.0 0.0
1.0 0.0 0.0
1.0 0.0 0.0
1.0 0.0 0.0
1.0 0.0 0.0
1.0 0.0 0.0
1.0 0.0 0.0
1.0 0.0 0.0
1.0 0.0 0.0
1.0 0.0 0.0
1.0 0.0 0.0
1.0 0.0 0.0
1.0 0.0 0.0
1.0 0.0 0.0
0.0 0.0 0.0
0.0 0.0 0.0
0.0 0.0 0.0
0.0 0.0 0.0
0.0 0.0 0.0
0.0 0.0 0.0
0.0 0.0 0.0
0.0 0.0 0.0
0.0 0.0 0.0
0.0 0.0 0.0
0.0 0.0 0.0
0.0 0.0 0.0
0.0 0.0 0.0
0.0 0.0 0.0
0.0 0.0 0.0
0.0 0.0 0.0
0.0 0.0 0.0
0.0 0.0 0.0
0.0 0.0 0.0
0.0 0.0 0.0
0.0 0.0 0.0
0.0 0.0 0.0
0.0 0.0 0.0
0.0 0.0 0.0
0.0 0.0 0.0
0.0 0.0 0.0
0.0 0.0 0.0
0.0 0.0 0.0
0.0 0.0 0.0
0.0 0.0 0.0
0.0 0.0 0.0
0.0 0.0 0.0
0.0 0.0 0.0
0.0 0.0 0.0
0.0 0.0 0.0
0.0 0.0 0.0
0.0 0.0 0.0
0.0 0.0 0.0
0.0 0.0 0.0
0.0 0.0 0.0
0.0 0.0 0.0
0.0 0.0 0.0
0.0 0.0 0.0
0.0 0.0 0.0
0.0 0.0 0.0
0.0 0.0 0.0
0.0 0.0 0.0
0.0 0.0 0.0
0.0 0.0 0.0
0.0 0.0 0.0
0.0 0.0 0.0
0.0 0.0 0.0
0.0 0.0 0.0
0.0 0.0 0.0
0.0 0.0 0.0
0.0 0.0 0.0
0.0 0.0 0.0
0.0 0.0 0.0
0.0 0.0 0.0
0.0 0.0 0.0
0.0 0.0 0.0
0.0 0.0 0.0
0.0 0.0 0.0
0.0 0.0 0.0
0.0 0.0 0.0
0.0 0.0 0.0
0.0 0.0 0.0
0.0 0.0 0.0
0.0 0.0 0.0
0.0 0.0 0.0
0.0 0.0 0.0
0.0 0.0 0.0
0.0 0.0 0.0
0.0 0.0 0.0
0.0 0.0 0.0
0.0 0.0 0.0
0.0 0.0 0.0
0.0 0.0 0.0
0.0 0.0 0.0
-0.191427345708 0.0535483673528 0.0
-0.147944704939 -0.135572811138 0.0
-0.0869576303836 0.203131164471 0.0
-0.088741971563 -0.0589951024477 0.0
-0.0706865074342 0.0517005272232 0.0
0.0323995613053 0.113031901932 0.0
-0.0670246212568 0.13400436248 0.0
-0.169554417687 -0.20607755941 0.0
-0.0855010939503 0.00042635236709 0.0
0.0215806338542 -0.309954230339 0.0
-0.0723132361528 0.232812837654 0.0
-0.0192014728956 -0.0207482134034 0.0
-0.0216705103269 0.0207185455893 0.0
0.246692640476 0.0012651574051 0.0
-0.0461029235525 0.18420528095 0.0
0.0788949842816 0.13038661009 0.0
-0.173397899681 -0.362738714595 0.0
-0.0453449595872 -0.081840842699 0.0
-0.032428251617 0.0704481357837 0.0
-0.0527639442332 0.0133354117805 0.0
-0.0547494677083 -0.015259052341 0.0
-0.176526471006 0.0485358895442 0.0
-0.134655709701 0.151426907001 0.0
-0.199037917584 -0.0756112055324 0.0
-0.1279360145 0.0394915819861 0.0
-0.127419537208 0.15426424881 0.0
-0.240219848659 -0.104290086997 0.0
-0.121918939497 0.0895512273132 0.0
-0.142181322125 -0.00865440929549 0.0
0.355908504798 0.06238223348 0.0
-0.0202648344271 0.0907993258842 0.0
-0.0718111227494 -0.205053147797 0.0
-0.0615328887027 -0.00236684894643 0.0
0.433279499374 -0.0577835995901 0.0
-0.03519708808 0.19485255718 0.0
-0.0107283719718 -0.0269918594092 0.0
-0.0271177114826 0.00856249572729 0.0
-0.116602597036 -0.468464813805 0.0
0.147759475206 0.112119270612 0.0
-0.0265936465666 -0.0101302190932 0.0
-0.0120850831614 0.0313373103608 0.0
0.010817532913 0.0306450448591 0.0
-0.0730914378191 0.183864262235 0.0
-0.116296697128 -0.113376519497 0.0
-0.0886871512146 0.026984045961 0.0
-0.04366637702 0.169436647051 0.0
-0.22961105908 -0.229252042646 0.0
-0.0728812175182 0.0902911235047 0.0
-0.0971678302799 -0.0256464795553 0.0
0.0688855566136 -0.371302426299 0.0
-0.0811496884443 0.257151513053 0.0
-0.00265866460584 -0.00430789919168 0.0
-0.00421706050739 0.00534482932483 0.0
0.513361013762 0.0189435924791 0.0
-0.0156383467961 0.110740215557 0.0
-0.02452363855 -0.0822424338258 0.0
-0.0407966176153 0.00333921225605 0.0
-0.16039966487 -0.318265103044 0.0
-0.049893631042 0.196054842268 0.0
-0.0530682581341 -0.0330662244635 0.0
-0.0422044530023 0.0495945489101 0.0
0.0462263590645 -0.116261859445 0.0
-0.0714494751819 0.221834223765 0.0
-0.0476756909358 -0.0554327526357 0.0
-0.0494312868596 0.0283136533686 0.0
-0.17550274263 0.101244383947 0.0
-0.222914160096 -0.00252196673243 0.0
-0.155412097316 0.10245402026 0.0
-0.187220121844 -0.00889897588844 0.0
-0.207028070785 -0.0599251477281 0.0
-0.110912948654 0.181640853407 0.0
-0.140629477447 -0.0550563858005 0.0
-0.0990882757824 0.0624316464867 0.0
0.613064404593 -0.00515497765557 0.0
-0.0134604428724 0.121275602124 0.0
-0.00894612643431 -0.0365368297748 0.0
-0.0288133014424 0.00390952482656 0.0
-0.0626833031935 -0.274671331219 0.0
-0.0310403281184 -0.00482405716724 0.0
0.40625363152 0.0501980255268 0.0
-0.00881900009935 0.0435564524347 0.0
0.405634318274 -0.112487691609 0.0
-0.0518171010317 0.227776340753 0.0
-0.0034825674666 -0.00913771003632 0.0
-0.0111091033695 0.00563888795276 0.0
-0.0838142100388 -0.529656639177 0.0
-0.0089689060119 -0.0057463232299 0.0
0.10449145048 0.13359017768 0.0
-0.00510097535326 0.0123746824683 0.0
-0.101238602082 0.117941875166 0.0
-0.108371246237 0.133830480146 0.0
-0.209727494278 -0.150256152387 0.0
-0.111216737424 0.00599312986736 0.0
0.174594127305 0.0613881749077 0.0
-0.0484688191413 0.15280456265 0.0
-0.0882313777348 -0.148992534283 0.0
-0.0655597577269 0.00736439226812 0.0
0.0374724033004 0.127602114531 0.0
-0.0441946030267 0.100686984711 0.0
-0.165001057951 -0.279600028326 0.0
-0.0640159797594 -0.0105547919366 0.0
-0.162464147761 0.0487355532956 0.0
-0.157436823056 0.0168357274118 0.0
-0.163755849148 -0.0107291340508 0.0
-0.176609389296 0.0204647094964 0.0
-0.000536097003577 -0.00209470958382 0.0
-0.000638228356735 -0.0013438025179 0.0
-0.00314425342136 0.00209958755752 0.0
-0.00092221467121 0.00150591727219 0.0
0.371645787303 -0.149157375618 0.0
0.0635054188827 -0.377180403564 0.0
-0.0680551101209 0.267356926094 0.0
-0.0613477172087 0.282111706516 0.0
-0.00234957636325 -0.00190942169569 0.0
-0.00110411069972 0.00306436105308 0.0
-0.054616441759 -0.521133875991 0.0
0.115791358777 0.150952900184 0.0
-0.138893496044 0.0170201865684 0.0
-0.145438327296 0.044185306954 0.0
-0.117527076409 0.140670995442 0.0
-0.0715884877867 0.146662143319 0.0
-0.0969220724609 0.163881229261 0.0
-0.232160037761 -0.133237218415 0.0
-0.229511915592 -0.183587927796 0.0
-0.242411695642 -0.15197031435 0.0
-0.114863907811 0.111390916968 0.0
-0.0928003198893 0.114875124806 0.0
-0.0998218868701 0.0950847012321 0.0
-0.1253759421 -0.00115645241367 0.0
-0.108836702178 -0.00931740483287 0.0
-0.121174282212 -0.0216505754906 0.0
-0.147122543611 0.127561341655 0.0
-0.170788115679 0.104762911915 0.0
-0.156215101041 0.131205158845 0.0
-0.148872118527 0.134091808467 0.0
-0.137497093853 0.153875205894 0.0
-0.220828601938 -0.0450657072579 0.0
-0.21022470212 -0.00695600653051 0.0
-0.19459320408 -0.0404647703446 0.0
-0.227344395797 -0.0876715738658 0.0
-0.236355657943 -0.0573034452881 0.0
-0.0406732799941 0.119233610513 0.0
-0.0186601361095 0.14113630884 0.0
-0.0873144644129 0.137406309892 0.0
-0.0735183993864 0.115461418987 0.0
-0.195722726769 -0.179834867752 0.0
-0.211711631747 -0.226206796818 0.0
-0.0999054561007 0.00300214868202 0.0
-0.0929702445835 -0.00931792943113 0.0
-0.0653569598527 0.191139394207 0.0
-0.076198947653 0.20661975208 0.0
-0.0602766773803 0.208066764559 0.0
0.0971688930694 0.0126331720603 0.0
0.0140581419971 -0.041515068554 0.0
0.149109946286 -0.0415617595797 0.0
-0.0675044002208 0.0197827890047 0.0
-0.0667624370934 0.0297273147465 0.0
-0.0527655333541 0.0203748474335 0.0
-0.0788025959115 -0.102616004825 0.0
-0.0771387979983 -0.0817728679271 0.0
-0.047866132783 -0.069448442683 0.0
-0.079861723727 0.213092807765 0.0
-0.0899280368799 0.200536606593 0.0
-0.0678061931458 -0.126050167808 0.0
-0.0933853219613 -0.0546308566666 0.0
-0.0614171535304 0.0399378372504 0.0
-0.0790358973219 0.0414033685716 0.0
-0.0709376169932 -0.0614563738277 0.0
-0.102509752508 -0.0788347729936 0.0
-0.192331321166 -0.370725062894 0.0
-0.208764109488 -0.281571654578 0.0
-0.211975306048 -0.3155451813 0.0
0.000569311054544 0.164791092417 0.0
-0.0466324212228 0.183900021353 0.0
-0.000761277199188 0.158694225555 0.0
-0.0551092262243 -0.0235592592118 0.0
-0.073818199373 -0.0332901150491 0.0
-0.0713913464023 -0.021899023041 0.0
-0.0379118659787 0.0608102162144 0.0
-0.0560336112657 0.0676216831947 0.0
-0.050335300202 0.0802368627275 0.0
-0.143437873743 0.0731841987439 0.0
-0.128263549182 0.0648160172017 0.0
0.640819505371 0.0198474225169 0.0
0.666303734297 0.0162909813628 0.0
-0.00495592341197 0.0451515334441 0.0
-0.00549313701536 0.0567529999744 0.0
-0.0212886650355 -0.127975165235 0.0
-0.0165125172023 -0.0928443143378 0.0
-0.0321881611129 -0.00128426926042 0.0
-0.034257592753 7.1594093708e-06 0.0
-0.0203677344383 -0.150445619368 0.0
-0.0690908638922 -0.24539746604 0.0
-0.0258751955544 -0.0018489740535 0.0
-0.0401973892621 -0.00452876963416 0.0
0.66142063925 0.0183746994853 0.0
0.371981073719 0.055763255646 0.0
-0.00328739702244 0.0307556789515 0.0
-0.0132951909334 0.0612065958736 0.0
-0.204969402553 -0.113760363175 0.0
-0.121113731846 0.0194436616794 0.0
-0.205864300076 -0.18960919126 0.0
-0.154785860329 -0.216903470985 0.0
-0.0774287171674 0.191744992821 0.0
-0.0719896935456 0.204102458981 0.0
-0.0936324838835 -0.0443428839632 0.0
-0.0710336058847 -0.0461443500948 0.0
-0.0728868480009 0.0670644317373 0.0
-0.0579571828149 0.0525802881929 0.0
-0.117243094466 0.169767126975 0.0
-0.121809512898 0.170247561635 0.0
-0.109646317761 0.0757909982502 0.0
-0.113484117177 0.0538934985028 0.0
-0.160102262875 0.0773407474401 0.0
-0.137943770617 0.0981466564741 0.0
-0.192096566946 0.0736158555713 0.0
-0.17692362621 0.0792087808945 0.0
-0.195502098461 0.0240009282019 0.0
-0.208279902571 0.0330154430293 0.0
-0.128005967878 -0.300237507406 0.0
-0.117796521187 -0.346470955352 0.0
-0.0535261605602 -0.00833493698208 0.0
-0.0421861303221 -0.00915667363065 0.0
0.183782469603 0.096248281353 0.0
0.213693589834 0.0902073874199 0.0
-0.027082693565 0.079990218728 0.0
-0.0186192588514 0.0586949360056 0.0
0.728638944965 -0.0153730718661 0.0
0.685862668295 -0.0272479464182 0.0
-0.00935853725598 0.109345382549 0.0
-0.0139171499103 0.13348369088 0.0
-0.00217669838356 -0.0126769912873 0.0
-0.00179974653056 -0.00882643626886 0.0
-0.0179972093002 0.00246549429151 0.0
-0.0141266757031 0.00277188744023 0.0
-0.0450747301044 -0.362681205128 0.0
-0.0378499715994 -0.286940975989 0.0
-0.0134612827475 -0.00335337067778 0.0
-0.018533394352 -0.00321812976848 0.0
0.452777987229 0.0440787860928 0.0
0.527114566269 0.0330528428122 0.0
-0.00271565500772 0.0136899275239 0.0
-0.00306785991188 0.0190928695034 0.0
0.438182741009 0.0362797605463 0.0
0.727845127341 0.00820881736545 0.0
-0.0177831140993 0.10171561702 0.0
-0.00446911805244 0.0611247302078 0.0
-0.0411352961294 -0.12678796818 0.0
-0.00952207391128 -0.0569538232041 0.0
-0.0462657963652 0.00151659453786 0.0
-0.0306156265046 0.00122728476695 0.0
-0.153792747852 -0.420217399794 0.0
-0.156855119043 -0.423187998888 0.0
0.0955949514506 0.126658981654 0.0
-0.00299694581326 0.170914827794 0.0
-0.0404671617981 -0.0144160012091 0.0
-0.0380345226478 -0.0209564748231 0.0
-0.0221088724418 0.0506744556224 0.0
-0.0265165559901 0.0427499305875 0.0
0.102049698124 0.0856046379557 0.0
0.234987741661 0.067692068068 0.0
0.134727291019 0.0964973380101 0.0
-0.0575079310059 0.146099446449 0.0
-0.0361577531022 0.126970975616 0.0
-0.0452855355785 0.120925784123 0.0
-0.125434282638 -0.179034401343 0.0
-0.0862946645871 -0.173979320754 0.0
-0.131125108226 -0.221233464738 0.0
-0.0757876525907 0.00532926207237 0.0
-0.0612123891238 0.00208196815262 0.0
-0.0696450037717 -0.00167234618188 0.0
-0.18846518382 0.00390599259119 0.0
-0.142651339719 -0.0158738991215 0.0
-0.129933788019 0.043308404684 0.0
-0.104687177177 0.185500690477 0.0
-0.112327694119 0.168432832861 0.0
-0.168282253287 -0.0667187545536 0.0
-0.137500284441 -0.0819794543632 0.0
-0.169291074297 -0.100269504409 0.0
-0.0967816406884 0.0453046163264 0.0
-0.10900824729 0.0339714738102 0.0
0.212306586737 -0.15028951361 0.0
0.19988129841 -0.0952455220797 0.0
0.0486114611855 -0.200704903056 0.0
-0.0642187641604 0.235423584825 0.0
-0.0587091278985 0.22205667233 0.0
-0.0723433252762 0.231488104871 0.0
-0.0159244494251 -0.0264152788714 0.0
-0.0270267582976 -0.0434276328808 0.0
-0.0303503188217 -0.035800307117 0.0
-0.025992391724 0.0150379666884 0.0
-0.0380263263425 0.0179072160949 0.0
-0.0347847846049 0.0253875576068 0.0
-0.178128477293 -0.0970897779182 0.0
-0.0964692435128 0.193221179831 0.0
-0.113712316868 -0.0609205005934 0.0
-0.0859152806907 0.0576049965652 0.0
-0.20751806247 0.0264206942749 0.0
-0.224876915019 -0.0278004360034 0.0
-0.236844230615 -0.0896663023196 0.0
-0.167202759491 -0.0375112697139 0.0
-0.141657677543 -0.0317985882717 0.0
0.771877993615 0.00201741742531 0.0
-0.00371656889072 0.0634830509775 0.0
-0.00558063889274 -0.0340591750876 0.0
-0.0260342273197 0.00170506080354 0.0
0.0505084852279 0.124298266731 0.0
0.0070857372846 0.146433778798 0.0
-0.178158152734 -0.24988483984 0.0
-0.2093455028 -0.274927975729 0.0
-0.0557060029073 0.113758771056 0.0
-0.0584081578724 0.0987432182181 0.0
-0.0782716054591 -0.00702060342709 0.0
-0.0804668314988 -0.0153367874552 0.0
0.418687307936 -0.090550542728 0.0
0.657300159615 -0.0374711667313 0.0
-0.0438923257985 0.213341847616 0.0
-0.0189330368131 0.152470375708 0.0
-0.00611328040681 -0.0154758590611 0.0
-0.00108950513215 -0.0050607023764 0.0
-0.0174783033003 0.0073110248437 0.0
-0.00941962238039 0.00241037906602 0.0
-0.0442177588586 -0.40746484795 0.0
-0.100393244495 -0.511933516346 0.0
-0.0083436810756 -0.00266993662551 0.0
-0.0152526513949 -0.0080511517346 0.0
0.418494725555 0.0514747828419 0.0
0.115899015506 0.125161074221 0.0
-0.00181627140513 0.00835653700162 0.0
-0.00805073881761 0.0195822441127 0.0
-0.0415498899417 0.194164564622 0.0
0.322567536041 -0.0344858935608 0.0
-0.0401816187819 0.0122225054974 0.0
-0.0249204499167 -0.0514923119705 0.0
-0.0875047618304 -0.331652970202 0.0
-0.112096345887 -0.453722706543 0.0
-0.0602533817897 0.211738484357 0.0
-0.0177286120909 0.183252604127 0.0
-0.0345082757199 -0.0284276494687 0.0
-0.0238933189766 -0.0166173679119 0.0
-0.0310235790697 0.0340865140472 0.0
-0.0181747692407 0.0282927756797 0.0
-0.000744068935807 -0.00312712470562 0.0
0.568311351846 -0.0638194417692 0.0
-0.00592534215185 0.00222101237094 0.0
-0.0335734852423 0.19582654884 0.0
-0.051446648787 -0.474545748749 0.0
-0.00484944804113 -0.00222138232469 0.0
0.31142736488 0.0780486368682 0.0
-0.00137521414485 0.00513999565755 0.0
0.311935563314 0.0422766188089 0.0
-0.0320218984779 0.138478845971 0.0
-0.0558743164189 -0.124490679987 0.0
-0.054699592141 0.00526535448329 0.0
-0.00346148461303 -0.00711254478791 0.0
-0.00820959530329 0.0062055637013 0.0
0.254812242446 -0.203257228085 0.0
-0.0771648387744 0.259279883609 0.0
-0.0516490155548 -0.5036474021 0.0
-0.00601409905567 -0.00572303440187 0.0
-0.00897902285263 0.191319998001 0.0
-0.00525760909075 0.00927138606559 0.0
-0.0700262053617 -0.219749627217 0.0
-0.0724061745749 0.218097157791 0.0
-0.0495201542597 -0.0434178017479 0.0
-0.0456168937623 0.0380923231009 0.0
-0.0756903806272 0.0842820924118 0.0
-0.139823878437 0.0837913949615 0.0
-0.0998855305096 0.15768374762 0.0
-0.122766195187 0.145699585379 0.0
-0.177227539533 -0.137330094234 0.0
-0.103836132178 0.0177273194907 0.0
0.131724303033 0.106039308062 0.0
-0.0387102933898 0.10065987756 0.0
0.0684051100325 0.129750538656 0.0
-0.041925886759 0.0886707670175 0.0
-0.144028206205 -0.267698708095 0.0
-0.0645121831015 -0.00685149689135 0.0
-0.179998899993 -0.312190607238 0.0
-0.0657426317123 -0.0132223678578 0.0
0.784854659084 -0.00589077037149 0.0
0.537123958871 -0.0200259616914 0.0
-0.00548976587944 0.0799770459346 0.0
-0.0211440921306 0.153426867451 0.0
0.292059825612 0.0722032862871 0.0
0.426423891367 -0.00415475979761 0.0
-0.0276218992095 0.160137726427 0.0
-0.0895370294789 -0.367447165253 0.0
-0.0103143087042 0.0385256291254 0.0
-0.0296494600365 -0.00716350396672 0.0
0.629390002319 0.02136631701 0.0
-0.0247570043332 -0.197692747896 0.0
-0.00274395714725 0.0229864698846 0.0
-0.0215897134882 -0.00236863887081 0.0
-0.00206593482725 -0.0143361968377 0.0
-0.0100666838796 -0.0331646289921 0.0
-0.0194258369993 0.00174433643505 0.0
-0.0291447785212 0.00582865593751 0.0
-0.022308884205 -0.0581856655171 0.0
-0.0400248248145 0.00778001838032 0.0
0.0056640107418 0.0868261405356 0.0
-0.0788613599156 0.15795303566 0.0
-0.152110364173 -0.159771501766 0.0
-0.0894513834715 0.0116925379285 0.0
-0.149847670138 0.111655072863 0.0
-0.181506421922 0.0744527469978 0.0
-0.131650597812 0.121590270776 0.0
0.211038406063 -0.197892860746 0.0
-0.0726291823962 0.24724359272 0.0
-0.0691521867455 -0.468876462066 0.0
-0.00894272275831 -0.01530300935 0.0
-0.0300031746972 0.195712508533 0.0
-0.0162457927058 0.0113105945087 0.0
-0.0134117385163 -0.0114033096867 0.0
-0.0115221436947 0.0176924434644 0.0
0.201470801009 0.0361930989135 0.0
0.0804046329547 0.0578378394339 0.0
-0.0486865379887 0.16909394743 0.0
-0.0661627381806 0.170502702557 0.0
-0.108493195253 -0.138729253047 0.0
-0.0685799074008 -0.11578105574 0.0
-0.0618759210194 0.011267196512 0.0
-0.0762003473049 0.013979960898 0.0
-0.0943025379786 0.18122751111 0.0
-0.228158103517 -0.14095097529 0.0
-0.0905629423354 0.076305143843 0.0
-0.116926438507 -0.0404625713494 0.0
0.054180562112 -0.347107304661 0.0
-0.0790323345875 0.2427079226 0.0
-0.00832924095036 -0.0106877310018 0.0
-0.0110155530925 0.0119167340561 0.0
-0.203978281959 0.0534620802092 0.0
0.567577345485 0.00524948041752 0.0
0.799381120855 -0.00191744719569 0.0
-0.0143919363205 0.118180456115 0.0
-0.00374400394474 0.0653974800396 0.0
0.364050039139 0.0191240185548 0.0
-0.0302586907154 0.151575515542 0.0
-0.015011506157 -0.0545225710865 0.0
-0.00312880143961 -0.0196375682642 0.0
-0.0351023404014 0.00401470320556 0.0