# vtk DataFile Version 2.0
2D Simulation Python
ASCII
DATASET UNSTRUCTURED_GRID
FIELD FieldData 1
NODES 1 2 int
7905 15488

POINTS 7905 double
0.0 0.0 0.0
1.0 0.0 0.0
1.0 1.0 0.0
0.0 1.0 0.0
0.01249999999997639 0.0 0.0
0.02499999999995297 0.0 0.0
0.03749999999992721 0.0 0.0
0.04999999999989927 0.0 0.0
0.0624999999998716 0.0 0.0
0.07499999999985263 0.0 0.0
0.08749999999983366 0.0 0.0
0.09999999999981467 0.0 0.0
0.1124999999997956 0.0 0.0
0.1249999999997765 0.0 0.0
0.1374999999997401 0.0 0.0
0.1499999999997036 0.0 0.0
0.1624999999996672 0.0 0.0
0.1749999999996308 0.0 0.0
0.1874999999995943 0.0 0.0
0.1999999999995579 0.0 0.0
0.2124999999995214 0.0 0.0
0.224999999999485 0.0 0.0
0.2374999999994485 0.0 0.0
0.2499999999994121 0.0 0.0
0.2624999999993757 0.0 0.0
0.2749999999993393 0.0 0.0
0.2874999999993028 0.0 0.0
0.2999999999992664 0.0 0.0
0.3124999999992299 0.0 0.0
0.3249999999991935 0.0 0.0
0.3374999999991571 0.0 0.0
0.3499999999991207 0.0 0.0
0.3624999999990842 0.0 0.0
0.3749999999990478 0.0 0.0
0.3874999999990113 0.0 0.0
0.3999999999989749 0.0 0.0
0.4124999999989398 0.0 0.0
0.4249999999989048 0.0 0.0
0.4374999999988697 0.0 0.0
0.4499999999988346 0.0 0.0
0.4624999999987995 0.0 0.0
0.4749999999987644 0.0 0.0
0.4874999999987293 0.0 0.0
0.4999999999986943 0.0 0.0
0.5124999999987259 0.0 0.0
0.5249999999987575 0.0 0.0
0.5374999999987891 0.0 0.0
0.5499999999988205 0.0 0.0
0.5624999999988521 0.0 0.0
0.5749999999988837 0.0 0.0
0.5874999999989152 0.0 0.0
0.5999999999989468 0.0 0.0
0.6124999999989797 0.0 0.0
0.6249999999990127 0.0 0.0
0.6374999999990456 0.0 0.0
0.6499999999990784 0.0 0.0
0.6624999999991114 0.0 0.0
0.6749999999991443 0.0 0.0
0.6874999999991771 0.0 0.0
0.69999999999921 0.0 0.0
0.712499999999243 0.0 0.0
0.7249999999992759 0.0 0.0
0.7374999999993088 0.0 0.0
0.7499999999993416 0.0 0.0
0.7624999999993746 0.0 0.0
0.7749999999994075 0.0 0.0
0.7874999999994404 0.0 0.0
0.7999999999994734 0.0 0.0
0.8124999999995063 0.0 0.0
0.8249999999995392 0.0 0.0
0.8374999999995721 0.0 0.0
0.8499999999996051 0.0 0.0
0.862499999999638 0.0 0.0
0.8749999999996709 0.0 0.0
0.8874999999997039 0.0 0.0
0.8999999999997368 0.0 0.0
0.9124999999997697 0.0 0.0
0.9249999999998026 0.0 0.0
0.9374999999998355 0.0 0.0
0.9499999999998684 0.0 0.0
0.9624999999999013 0.0 0.0
0.9749999999999343 0.0 0.0
0.9874999999999672 0.0 0.0
1.0 0.01249999999997639 0.0
1.0 0.02499999999995297 0.0
1.0 0.03749999999992721 0.0
1.0 0.04999999999989927 0.0
1.0 0.0624999999998716 0.0
1.0 0.07499999999985263 0.0
1.0 0.08749999999983366 0.0
1.0 0.09999999999981467 0.0
1.0 0.1124999999997956 0.0
1.0 0.1249999999997765 0.0
1.0 0.1374999999997401 0.0
1.0 0.1499999999997036 0.0
1.0 0.1624999999996672 0.0
1.0 0.1749999999996308 0.0
1.0 0.1874999999995943 0.0
1.0 0.1999999999995579 0.0
1.0 0.2124999999995214 0.0
1.0 0.224999999999485 0.0
1.0 0.2374999999994485 0.0
1.0 0.2499999999994121 0.0
1.0 0.2624999999993757 0.0
1.0 0.2749999999993393 0.0
1.0 0.2874999999993028 0.0
1.0 0.2999999999992664 0.0
1.0 0.3124999999992299 0.0
1.0 0.3249999999991935 0.0
1.0 0.3374999999991571 0.0
1.0 0.3499999999991207 0.0
1.0 0.3624999999990842 0.0
1.0 0.3749999999990478 0.0
1.0 0.3874999999990113 0.0
1.0 0.3999999999989749 0.0
1.0 0.4124999999989398 0.0
1.0 0.4249999999989048 0.0
1.0 0.4374999999988697 0.0
1.0 0.4499999999988346 0.0
1.0 0.4624999999987995 0.0
1.0 0.4749999999987644 0.0
1.0 0.4874999999987293 0.0
1.0 0.4999999999986943 0.0
1.0 0.5124999999987259 0.0
1.0 0.5249999999987575 0.0
1.0 0.5374999999987891 0.0
1.0 0.5499999999988205 0.0
1.0 0.5624999999988521 0.0
1.0 0.5749999999988837 0.0
1.0 0.5874999999989152 0.0
1.0 0.5999999999989468 0.0
1.0 0.6124999999989797 0.0
1.0 0.6249999999990127 0.0
1.0 0.6374999999990456 0.0
1.0 0.6499999999990784 0.0
1.0 0.6624999999991114 0.0
1.0 0.6749999999991443 0.0
1.0 0.6874999999991771 0.0
1.0 0.69999999999921 0.0
1.0 0.712499999999243 0.0
1.0 0.7249999999992759 0.0
1.0 0.7374999999993088 0.0
1.0 0.7499999999993416 0.0
1.0 0.7624999999993746 0.0
1.0 0.7749999999994075 0.0
1.0 0.7874999999994404 0.0
1.0 0.7999999999994734 0.0
1.0 0.8124999999995063 0.0
1.0 0.8249999999995392 0.0
1.0 0.8374999999995721 0.0
1.0 0.8499999999996051 0.0
1.0 0.862499999999638 0.0
1.0 0.8749999999996709 0.0
1.0 0.8874999999997039 0.0
1.0 0.8999999999997368 0.0
1.0 0.9124999999997697 0.0
1.0 0.9249999999998026 0.0
1.0 0.9374999999998355 0.0
1.0 0.9499999999998684 0.0
1.0 0.9624999999999013 0.0
1.0 0.9749999999999343 0.0
1.0 0.9874999999999672 0.0
0.9874999999999439 1.0 0.0
0.9749999999998877 1.0 0.0
0.9624999999998541 1.0 0.0
0.9499999999998356 1.0 0.0
0.9374999999997805 1.0 0.0
0.9249999999996992 1.0 0.0
0.9124999999996414 1.0 0.0
0.8999999999995836 1.0 0.0
0.8874999999996454 1.0 0.0
0.8749999999997078 1.0 0.0
0.8624999999997771 1.0 0.0
0.8499999999998515 1.0 0.0
0.837499999999895 1.0 0.0
0.8249999999999216 1.0 0.0
0.8124999999999571 1.0 0.0
0.7999999999999998 1.0 0.0
0.7875000000000937 1.0 0.0
0.77500000000021 1.0 0.0
0.7625000000002968 1.0 0.0
0.7500000000003858 1.0 0.0
0.7375000000004739 1.0 0.0
0.7250000000005448 1.0 0.0
0.7125000000005861 1.0 0.0
0.7000000000006934 1.0 0.0
0.6875000000008109 1.0 0.0
0.6750000000009306 1.0 0.0
0.6625000000010091 1.0 0.0
0.6500000000010593 1.0 0.0
0.6375000000011386 1.0 0.0
0.6250000000012101 1.0 0.0
0.612500000001312 1.0 0.0
0.6000000000013869 1.0 0.0
0.5875000000014601 1.0 0.0
0.5750000000015277 1.0 0.0
0.5625000000016089 1.0 0.0
0.5500000000016854 1.0 0.0
0.5375000000017889 1.0 0.0
0.5250000000018821 1.0 0.0
0.5125000000019756 1.0 0.0
0.5000000000020587 1.0 0.0
0.4875000000020093 1.0 0.0
0.4750000000019601 1.0 0.0
0.4625000000019108 1.0 0.0
0.4500000000018616 1.0 0.0
0.4375000000018123 1.0 0.0
0.425000000001763 1.0 0.0
0.4125000000017136 1.0 0.0
0.4000000000016644 1.0 0.0
0.3875000000016123 1.0 0.0
0.3750000000015603 1.0 0.0
0.3625000000015083 1.0 0.0
0.3500000000014563 1.0 0.0
0.3375000000014042 1.0 0.0
0.3250000000013522 1.0 0.0
0.3125000000013003 1.0 0.0
0.3000000000012483 1.0 0.0
0.2875000000011962 1.0 0.0
0.2750000000011442 1.0 0.0
0.2625000000010922 1.0 0.0
0.2500000000010403 1.0 0.0
0.2375000000009883 1.0 0.0
0.2250000000009362 1.0 0.0
0.2125000000008842 1.0 0.0
0.2000000000008322 1.0 0.0
0.1875000000007802 1.0 0.0
0.1750000000007281 1.0 0.0
0.1625000000006761 1.0 0.0
0.1500000000006241 1.0 0.0
0.1375000000005721 1.0 0.0
0.12500000000052 1.0 0.0
0.112500000000468 1.0 0.0
0.100000000000416 1.0 0.0
0.08750000000036395 1.0 0.0
0.07500000000031193 1.0 0.0
0.06250000000026001 1.0 0.0
0.05000000000020799 1.0 0.0
0.03750000000015596 1.0 0.0
0.02500000000010394 1.0 0.0
0.01250000000005191 1.0 0.0
0.0 0.9874999999999439 0.0
0.0 0.9749999999998877 0.0
0.0 0.9624999999998541 0.0
0.0 0.9499999999998356 0.0
0.0 0.9374999999997805 0.0
0.0 0.9249999999996992 0.0
0.0 0.9124999999996414 0.0
0.0 0.8999999999995836 0.0
0.0 0.8874999999996454 0.0
0.0 0.8749999999997078 0.0
0.0 0.8624999999997771 0.0
0.0 0.8499999999998515 0.0
0.0 0.837499999999895 0.0
0.0 0.8249999999999216 0.0
0.0 0.8124999999999571 0.0
0.0 0.7999999999999998 0.0
0.0 0.7875000000000937 0.0
0.0 0.77500000000021 0.0
0.0 0.7625000000002968 0.0
0.0 0.7500000000003858 0.0
0.0 0.7375000000004739 0.0
0.0 0.7250000000005448 0.0
0.0 0.7125000000005861 0.0
0.0 0.7000000000006934 0.0
0.0 0.6875000000008109 0.0
0.0 0.6750000000009306 0.0
0.0 0.6625000000010091 0.0
0.0 0.6500000000010593 0.0
0.0 0.6375000000011386 0.0
0.0 0.6250000000012101 0.0
0.0 0.612500000001312 0.0
0.0 0.6000000000013869 0.0
0.0 0.5875000000014601 0.0
0.0 0.5750000000015277 0.0
0.0 0.5625000000016089 0.0
0.0 0.5500000000016854 0.0
0.0 0.5375000000017889 0.0
0.0 0.5250000000018821 0.0
0.0 0.5125000000019756 0.0
0.0 0.5000000000020587 0.0
0.0 0.4875000000020093 0.0
0.0 0.4750000000019601 0.0
0.0 0.4625000000019108 0.0
0.0 0.4500000000018616 0.0
0.0 0.4375000000018123 0.0
0.0 0.425000000001763 0.0
0.0 0.4125000000017136 0.0
0.0 0.4000000000016644 0.0
0.0 0.3875000000016123 0.0
0.0 0.3750000000015603 0.0
0.0 0.3625000000015083 0.0
0.0 0.3500000000014563 0.0
0.0 0.3375000000014042 0.0
0.0 0.3250000000013522 0.0
0.0 0.3125000000013003 0.0
0.0 0.3000000000012483 0.0
0.0 0.2875000000011962 0.0
0.0 0.2750000000011442 0.0
0.0 0.2625000000010922 0.0
0.0 0.2500000000010403 0.0
0.0 0.2375000000009883 0.0
0.0 0.2250000000009362 0.0
0.0 0.2125000000008842 0.0
0.0 0.2000000000008322 0.0
0.0 0.1875000000007802 0.0
0.0 0.1750000000007281 0.0
0.0 0.1625000000006761 0.0
0.0 0.1500000000006241 0.0
0.0 0.1375000000005721 0.0
0.0 0.12500000000052 0.0
0.0 0.112500000000468 0.0
0.0 0.100000000000416 0.0
0.0 0.08750000000036395 0.0
0.0 0.07500000000031193 0.0
0.0 0.06250000000026001 0.0
0.0 0.05000000000020799 0.0
0.0 0.03750000000015596 0.0
0.0 0.02500000000010394 0.0
0.0 0.01250000000005191 0.0
0.499547313951317 0.4984202829398231 0.0
0.7057142553715264 0.7049957919913439 0.0
0.2942617789825218 0.706558362574613 0.0
0.7052750732513358 0.29408370064617073 0.0
0.2941161372558304 0.29425664999463297 0.0
0.49473409022248005 0.7865288457870021 0.0
0.21400675843102512 0.49559804899934157 0.0
0.7879606576561358 0.5053778129282838 0.0
0.505369301426186 0.2119891966328729 0.0
0.8286074034533916 0.8287576993256224 0.0
0.17122528584787128 0.8286011816233976 0.0
0.8287577004551061 0.17139259539200086 0.0
0.17140751986106711 0.17123186221929698 0.0
0.6412438345717256 0.8516520873564006 0.0
0.14868333985619164 0.6419476520576217 0.0
0.36001439100831745 0.8471882363166383 0.0
0.8472916681795735 0.639858398754968 0.0
0.8516551147624887 0.3587551765143301 0.0
0.1529024464427883 0.36006180552290556 0.0
0.3587547979315107 0.148343271772372 0.0
0.6398585806283599 0.15270777331315408 0.0
0.5665851234669081 0.6415505082226679 0.0
0.3688065763014604 0.5781443560211958 0.0
0.6448511073779454 0.4469929790001165 0.0
0.43335085497228876 0.35323599965884955 0.0
0.42653529248703315 0.6555720715037009 0.0
0.6657620768186652 0.5502649260729648 0.0
0.3566111211511165 0.42874186251021185 0.0
0.5447859278293945 0.34262223816401394 0.0
0.4594948214297615 0.8920313032464312 0.0
[...]
POINT_DATA 7905
VECTORS vector double
0.0 0.0 0.0
0.0 0.0 0.0
0.0 0.0 0.0
0.0 0.0 0.0
0.0 0.0 0.0
0.0 0.0 0.0
0.0 0.0 0.0
0.0 0.0 0.0
0.0 0.0 0.0
0.0 0.0 0.0
0.0 0.0 0.0
0.0 0.0 0.0
0.0 0.0 0.0
0.0 0.0 0.0
0.0 0.0 0.0
0.0 0.0 0.0
0.0 0.0 0.0
0.0 0.0 0.0
0.0 0.0 0.0
0.0 0.0 0.0
0.0 0.0 0.0
0.0 0.0 0.0
0.0 0.0 0.0
0.0 0.0 0.0
0.0 0.0 0.0
0.0 0.0 0.0
0.0 0.0 0.0
0.0 0.0 0.0
0.0 0.0 0.0
0.0 0.0 0.0
0.0 0.0 0.0
0.0 0.0 0.0
0.0 0.0 0.0
0.0 0.0 0.0
0.0 0.0 0.0
0.0 0.0 0.0
0.0 0.0 0.0
0.0 0.0 0.0
0.0 0.0 0.0
0.0 0.0 0.0
0.0 0.0 0.0
0.0 0.0 0.0
0.0 0.0 0.0
0.0 0.0 0.0
0.0 0.0 0.0
0.0 0.0 0.0
0.0 0.0 0.0
0.0 0.0 0.0
0.0 0.0 0.0
0.0 0.0 0.0
0.0 0.0 0.0
0.0 0.0 0.0
0.0 0.0 0.0
0.0 0.0 0.0
0.0 0.0 0.0
0.0 0.0 0.0
0.0 0.0 0.0
0.0 0.0 0.0
0.0 0.0 0.0
0.0 0.0 0.0
0.0 0.0 0.0
0.0 0.0 0.0
0.0 0.0 0.0
0.0 0.0 0.0
0.0 0.0 0.0
0.0 0.0 0.0
0.0 0.0 0.0
0.0 0.0 0.0
0.0 0.0 0.0
0.0 0.0 0.0
0.0 0.0 0.0
0.0 0.0 0.0
0.0 0.0 0.0
0.0 0.0 0.0
0.0 0.0 0.0
0.0 0.0 0.0
0.0 0.0 0.0
0.0 0.0 0.0
0.0 0.0 0.0
0.0 0.0 0.0
0.0 0.0 0.0
0.0 0.0 0.0
0.0 0.0 0.0
0.0 0.0 0.0
0.0 0.0 0.0
0.0 0.0 0.0
0.0 0.0 0.0
0.0 0.0 0.0
0.0 0.0 0.0
0.0 0.0 0.0
0.0 0.0 0.0
0.0 0.0 0.0
0.0 0.0 0.0
0.0 0.0 0.0
0.0 0.0 0.0
0.0 0.0 0.0
0.0 0.0 0.0
0.0 0.0 0.0
0.0 0.0 0.0
0.0 0.0 0.0
0.0 0.0 0.0
0.0 0.0 0.0
0.0 0.0 0.0
0.0 0.0 0.0
0.0 0.0 0.0
0.0 0.0 0.0
0.0 0.0 0.0
0.0 0.0 0.0
0.0 0.0 0.0
0.0 0.0 0.0
0.0 0.0 0.0
0.0 0.0 0.0
0.0 0.0 0.0
0.0 0.0 0.0
0.0 0.0 0.0
0.0 0.0 0.0
0.0 0.0 0.0
0.0 0.0 0.0
0.0 0.0 0.0
0.0 0.0 0.0
0.0 0.0 0.0
0.0 0.0 0.0
0.0 0.0 0.0
0.0 0.0 0.0
0.0 0.0 0.0
0.0 0.0 0.0
0.0 0.0 0.0
0.0 0.0 0.0
0.0 0.0 0.0
0.0 0.0 0.0
0.0 0.0 0.0
0.0 0.0 0.0
0.0 0.0 0.0
0.0 0.0 0.0
0.0 0.0 0.0
0.0 0.0 0.0
0.0 0.0 0.0
0.0 0.0 0.0
0.0 0.0 0.0
0.0 0.0 0.0
0.0 0.0 0.0
0.0 0.0 0.0
0.0 0.0 0.0
0.0 0.0 0.0
0.0 0.0 0.0
0.0 0.0 0.0
0.0 0.0 0.0
0.0 0.0 0.0
0.0 0.0 0.0
0.0 0.0 0.0
0.0 0.0 0.0
0.0 0.0 0.0
0.0 0.0 0.0
0.0 0.0 0.0
0.0 0.0 0.0
0.0 0.0 0.0
0.0 0.0 0.0
0.0 0.0 0.0
0.0 0.0 0.0
0.0 0.0 0.0
0.0 0.0 0.0
0.0 0.0 0.0
1.0 0.0 0.0
1.0 0.0 0.0
1.0 0.0 0.0
1.0 0.0 0.0
1.0 0.0 0.0
1.0 0.0 0.0
1.0 0.0 0.0
1.0 0.0 0.0
1.0 0.0 0.0
1.0 0.0 0.0
1.0 0.0 0.0
1.0 0.0 0.0
1.0 0.0 0.0
1.0 0.0 0.0
1.0 0.0 0.0
1.0 0.0 0.0
1.0 0.0 0.0
1.0 0.0 0.0
1.0 0.0 0.0
1.0 0.0 0.0
1.0 0.0 0.0
1.0 0.0 0.0
1.0 0.0 0.0
1.0 0.0 0.0
1.0 0.0 0.0
1.0 0.0 0.0
1.0 0.0 0.0
1.0 0.0 0.0
1.0 0.0 0.0
1.0 0.0 0.0
1.0 0.0 0.0
1.0 0.0 0.0
1.0 0.0 0.0
1.0 0.0 0.0
1.0 0.0 0.0
1.0 0.0 0.0
1.0 0.0 0.0
1.0 0.0 0.0
1.0 0.0 0.0
1.0 0.0 0.0
1.0 0.0 0.0
1.0 0.0 0.0
1.0 0.0 0.0
1.0 0.0 0.0
1.0 0.0 0.0
1.0 0.0 0.0
1.0 0.0 0.0
1.0 0.0 0.0
1.0 0.0 0.0
1.0 0.0 0.0
1.0 0.0 0.0
1.0 0.0 0.0
1.0 0.0 0.0
1.0 0.0 0.0
1.0 0.0 0.0
1.0 0.0 0.0
1.0 0.0 0.0
1.0 0.0 0.0
1.0 0.0 0.0
1.0 0.0 0.0
1.0 0.0 0.0
1.0 0.0 0.0
1.0 0.0 0.0
1.0 0.0 0.0
1.0 0.0 0.0
1.0 0.0 0.0
1.0 0.0 0.0
1.0 0.0 0.0
1.0 0.0 0.0
1.0 0.0 0.0
1.0 0.0 0.0
1.0 0.0 0.0
1.0 0.0 0.0
1.0 0.0 0.0
1.0 0.0 0.0
1.0 0.0 0.0
1.0 0.0 0.0
1.0 0.0 0.0
1.0 0.0 0.0
0.0 0.0 0.0
0.0 0.0 0.0
0.0 0.0 0.0
0.0 0.0 0.0
0.0 0.0 0.0
0.0 0.0 0.0
0.0 0.0 0.0
0.0 0.0 0.0
0.0 0.0 0.0
0.0 0.0 0.0
0.0 0.0 0.0
0.0 0.0 0.0
0.0 0.0 0.0
0.0 0.0 0.0
0.0 0.0 0.0
0.0 0.0 0.0
0.0 0.0 0.0
0.0 0.0 0.0
0.0 0.0 0.0
0.0 0.0 0.0
0.0 0.0 0.0
0.0 0.0 0.0
0.0 0.0 0.0
0.0 0.0 0.0
0.0 0.0 0.0
0.0 0.0 0.0
0.0 0.0 0.0
0.0 0.0 0.0
0.0 0.0 0.0
0.0 0.0 0.0
0.0 0.0 0.0
0.0 0.0 0.0
0.0 0.0 0.0
0.0 0.0 0.0
0.0 0.0 0.0
0.0 0.0 0.0
0.0 0.0 0.0
0.0 0.0 0.0
0.0 0.0 0.0
0.0 0.0 0.0
0.0 0.0 0.0
0.0 0.0 0.0
0.0 0.0 0.0
0.0 0.0 0.0
0.0 0.0 0.0
0.0 0.0 0.0
0.0 0.0 0.0
0.0 0.0 0.0
0.0 0.0 0.0
0.0 0.0 0.0
0.0 0.0 0.0
0.0 0.0 0.0
0.0 0.0 0.0
0.0 0.0 0.0
0.0 0.0 0.0
0.0 0.0 0.0
0.0 0.0 0.0
0.0 0.0 0.0
0.0 0.0 0.0
0.0 0.0 0.0
0.0 0.0 0.0
0.0 0.0 0.0
0.0 0.0 0.0
0.0 0.0 0.0
0.0 0.0 0.0
0.0 0.0 0.0
0.0 0.0 0.0
0.0 0.0 0.0
0.0 0.0 0.0
0.0 0.0 0.0
0.0 0.0 0.0
0.0 0.0 0.0
0.0 0.0 0.0
0.0 0.0 0.0
0.0 0.0 0.0
0.0 0.0 0.0
0.0 0.0 0.0
0.0 0.0 0.0
0.0 0.0 0.0
-0.213739131398 0.0574599155483 0.0
-0.10729322608 -0.160333132354 0.0
-0.0552051437304 0.235265920195 0.0
-0.118977330846 -0.081431721011 0.0
-0.0981984290137 0.0706642254472 0.0
0.081404816495 0.11288016735 0.0
-0.076053531691 0.174954376511 0.0
-0.189228736879 -0.254325847542 0.0
-0.116669754019 -0.00170308218422 0.0
0.0344391197405 -0.319027684825 0.0
-0.0606738789349 0.246312398796 0.0
-0.0203922219453 -0.0255323420963 0.0
-0.0281352284587 0.0277777719218 0.0
0.279438156833 -0.00867547022171 0.0
-0.0385805506582 0.219974953758 0.0
0.114625811857 0.141766671614 0.0
-0.169484241445 -0.406080992944 0.0
-0.0582717978652 -0.104486178089 0.0
-0.043230736855 0.0956344894183 0.0
-0.07124040239 0.0178136262659 0.0
-0.0701884389553 -0.0220070578113 0.0
-0.143488088995 0.0365439098682 0.0
-0.130552344265 0.183261576194 0.0
-0.234682502559 -0.104985091144 0.0
-0.169264866348 0.0506925116243 0.0
-0.0951253671465 0.171307049354 0.0
-0.245581845399 -0.136678150659 0.0
-0.151467247353 0.117838493373 0.0
-0.187167957807 -0.016843574326 0.0
0.311663765787 0.0648041462872 0.0
-0.0267627684994 0.120040526915 0.0
-0.0872383909118 -0.244377759087 0.0
-0.0502163227884 -0.00410608079524 0.0
0.436578411705 -0.0628848756042 0.0
-0.0300013926291 0.21229062706 0.0
-0.012079793035 -0.0318182974557 0.0
-0.0329029198619 0.0113790803533 0.0
-0.112056868452 -0.495936684469 0.0
0.153642343529 0.11945655319 0.0
-0.0257119397769 -0.0133756464882 0.0
-0.0163410909585 0.0424553243277 0.0
-0.0397981855174 0.0150942753065 0.0
-0.0922622872561 0.226111002969 0.0
-0.159053125964 -0.149991998876 0.0
-0.113101710357 0.0359054931482 0.0
-0.0206779391013 0.186071094347 0.0
-0.230503570046 -0.269304653783 0.0
-0.0968467798294 0.121978181575 0.0
-0.125957048468 -0.0382317007465 0.0
0.0715435851856 -0.373224427566 0.0
-0.0813799569385 0.257069226458 0.0
-0.00144981909056 -0.0045085589247 0.0
-0.00494948693724 0.00687304797017 0.0
0.534266491925 0.0165475486337 0.0
-0.014768808617 0.13779747363 0.0
-0.0310736921749 -0.101325322509 0.0
-0.0520567396747 0.00422502157979 0.0
-0.133841344007 -0.343744113015 0.0
-0.017885494543 0.217693826309 0.0
-0.0681741265799 -0.0451769908547 0.0
-0.0581717169719 0.0677375267002 0.0
0.0789021189011 -0.132040644446 0.0
-0.0516564498205 0.253286256916 0.0
-0.0619731251656 -0.0725908648295 0.0
-0.067805758007 0.0385166715608 0.0
-0.168641376736 0.108677593652 0.0
-0.232525006702 -0.0178521442441 0.0
-0.174371472105 0.126739599742 0.0
-0.227022202219 -0.0201237634437 0.0
-0.179505145196 -0.0849038459908 0.0
-0.0839350752217 0.212290632908 0.0
-0.18215145218 -0.0785559528019 0.0
-0.133833780205 0.0842232058308 0.0
0.630513985628 -0.00838264386984 0.0
-0.0108654390299 0.140790404323 0.0
-0.0116373230948 -0.0434140811456 0.0
-0.0379245003702 0.00518695329648 0.0
-0.0637418558879 -0.308190207704 0.0
-0.0378223980631 -0.00683458732065 0.0
0.424022509604 0.0544384354837 0.0
-0.0119712528547 0.0591904485426 0.0
0.412217184722 -0.114000963774 0.0
-0.0476829787455 0.23178983993 0.0
-0.00354185706315 -0.00948407656639 0.0
-0.0143008001472 0.00739333914337 0.0
-0.0763399429762 -0.541984908506 0.0
-0.00883647571682 -0.00691061938319 0.0
0.106865072666 0.136560835738 0.0
-0.00701317193541 0.0163542838486 0.0
-0.0586336691674 0.11749855436 0.0
-0.121628198108 0.172742142836 0.0
-0.234272420585 -0.192156166603 0.0
-0.153714479186 0.00493701286594 0.0
0.221522265483 0.0558294988773 0.0
-0.0484499506969 0.19317093409 0.0
-0.107218301053 -0.187565600025 0.0
-0.0904759973241 0.00900350148783 0.0
0.10606499349 0.135556531528 0.0
-0.0599587187286 0.135243486667 0.0
-0.186765797264 -0.329212856623 0.0
-0.0961165170687 -0.0166429677656 0.0
-0.200047316922 0.0587376938487 0.0
-0.201290708729 0.0168165465875 0.0
-0.208415748457 -0.0208249070859 0.0
-0.216320876921 0.0194105129954 0.0
0.000189371407035 -0.00212663104823 0.0
0.000362070705953 -0.00173964036757 0.0
-0.00296832111505 0.00264792439178 0.0
-0.000427781370555 0.00206567313149 0.0
0.366981765957 -0.149095216735 0.0
0.0576153230723 -0.379877842308 0.0
-0.0685665683056 0.265649544606 0.0
-0.0624630072939 0.281019391318 0.0
-0.000984148509006 -0.00211340100279 0.0
-0.00112208198973 0.00399065866438 0.0
-0.054865074217 -0.525980952411 0.0
0.113729867973 0.150435177398 0.0
-0.18316943339 0.0187071830024 0.0
-0.186332111561 0.0551818716468 0.0
-0.0804137159226 0.149382377494 0.0
-0.0268772876523 0.154470397114 0.0
-0.0581359770934 0.180266254956 0.0
-0.247352629411 -0.170975848201 0.0
-0.23974889014 -0.226430064618 0.0
-0.239495633237 -0.188454840819 0.0
-0.136819050651 0.145744641409 0.0
-0.112029541613 0.152010398767 0.0
-0.125850470436 0.127040422824 0.0
-0.168630737345 -0.0056902006416 0.0
-0.147813497134 -0.0163448971404 0.0
-0.162431287461 -0.0337553436162 0.0
-0.154811743548 0.156301539282 0.0
-0.177848198667 0.122408435758 0.0
-0.150401992012 0.152447911722 0.0
-0.126269379484 0.147297531145 0.0
-0.119848975329 0.177888667654 0.0
-0.246300306749 -0.0678007374374 0.0
-0.238292052767 -0.0201308587129 0.0
-0.233056454919 -0.0610682246223 0.0
-0.249043562952 -0.118865794439 0.0
-0.242274366965 -0.0828576572729 0.0
0.0073743532936 0.118297309946 0.0
0.029862631274 0.147726306975 0.0
-0.0983874436649 0.178641858727 0.0
-0.0890703408256 0.15333663296 0.0
-0.217843984393 -0.225638890528 0.0
-0.222417162305 -0.273282235893 0.0
-0.136791210263 0.00131426148066 0.0
-0.126516029241 -0.0157221364532 0.0
-0.0564508403916 0.231844376263 0.0
-0.0599324611511 0.244993431669 0.0
-0.0471544288627 0.242970948995 0.0
0.136887358941 -0.000832055695381 0.0
0.0530216802905 -0.0591391967301 0.0
0.181711191699 -0.054922930766 0.0
-0.0923378756047 0.0264757418829 0.0
-0.0918382587885 0.0403657959968 0.0
-0.0717865457437 0.0275514892836 0.0
-0.100400912487 -0.133527834665 0.0
-0.10024885844 -0.10846344126 0.0
-0.0621347578842 -0.0898394490096 0.0
-0.0545640483783 0.246515904915 0.0
-0.0693269884952 0.238019309711 0.0
-0.0294350827579 -0.146701838977 0.0
-0.0519917352802 -0.0759373241573 0.0
-0.084906506329 0.0545664367885 0.0
-0.108819892812 0.0563182130665 0.0
-0.09331717311 -0.0828679598015 0.0
-0.133394055544 -0.107043394757 0.0
-0.176761787772 -0.405850703385 0.0
-0.187090060092 -0.315133421912 0.0
-0.203620172048 -0.357669411854 0.0
0.0354832660698 0.181150363142 0.0
-0.00782408888092 0.20519196395 0.0
0.0419851766317 0.173666241254 0.0
-0.0705227738586 -0.0330445136739 0.0
-0.0975372173107 -0.0471983382384 0.0
-0.0945384468442 -0.0319369506165 0.0
-0.0516621464173 0.0829198046041 0.0
-0.0758100307942 0.0922710555185 0.0
-0.066509734866 0.108887891728 0.0
-0.177244306473 0.0937370844836 0.0
-0.16489299776 0.0849256842474 0.0
0.645573981502 0.0211814011822 0.0
0.668829373513 0.0166878087928 0.0
-0.00619008141391 0.0605524138964 0.0
-0.00623307636869 0.0745323238209 0.0
-0.0239220248924 -0.150247955392 0.0
-0.0198679795902 -0.111557927982 0.0
-0.0345788375355 -0.00188876397947 0.0
-0.0366408861093 -0.00023920964968 0.0
-0.0216912883203 -0.171844177083 0.0
-0.0730974931296 -0.282512296722 0.0
-0.0297487551017 -0.00250647420794 0.0
-0.0484535239337 -0.00670606798789 0.0
0.670345119588 0.0196803690857 0.0
0.391760883678 0.0599629139877 0.0
-0.00432573695199 0.04180171313 0.0
-0.0171435149069 0.0824935285572 0.0
-0.235076528664 -0.150591965697 0.0
-0.163392141373 0.0233666205738 0.0
-0.17795866367 -0.220152431301 0.0
-0.121382353387 -0.242314394998 0.0
-0.0408943464417 0.217860363952 0.0
-0.0387376374257 0.231707918726 0.0
-0.124833595394 -0.0628806979675 0.0
-0.093843501194 -0.063597936759 0.0
-0.098359933111 0.0914630729381 0.0
-0.0797603481964 0.0719301455612 0.0
-0.0888551369305 0.194083959852 0.0
-0.106069771588 0.202566344199 0.0
-0.142069358543 0.101337034167 0.0
-0.150945045604 0.0716940429704 0.0
-0.188979241646 0.0956923679252 0.0
-0.163480966625 0.125970504312 0.0
-0.199639583644 0.0794056210274 0.0
-0.196782188045 0.0930670689532 0.0
-0.226169577884 0.0207637426189 0.0
-0.223553165091 0.0281650582349 0.0
-0.132844176265 -0.345983685884 0.0
-0.117874032015 -0.387664073549 0.0
-0.0686119314314 -0.0125287423499 0.0
-0.0520130276332 -0.0130879911163 0.0
0.217759650397 0.103096243336 0.0
0.239096894927 0.0976631000033 0.0
-0.0347118899311 0.107654228019 0.0
-0.0249178936504 0.0796534998526 0.0
0.729576770121 -0.0164043291998 0.0
0.684501158083 -0.0281384879707 0.0
-0.00817609330985 0.118918427394 0.0
-0.0123167948914 0.139374946709 0.0
-0.00186406826237 -0.0138145934888 0.0
-0.00154994606759 -0.00907176063247 0.0
-0.0217768744562 0.00315007064784 0.0
-0.0167262926979 0.00356029521245 0.0
-0.0435575290584 -0.381274840511 0.0
-0.0373748989879 -0.309155828043 0.0
-0.0130020447476 -0.00419441520608 0.0
-0.0188219474377 -0.00414722614065 0.0
0.454020848123 0.0459028931669 0.0
0.530544633612 0.0349354527479 0.0
-0.003687683053 0.0183899616125 0.0
-0.00423136641948 0.0259341674777 0.0
0.460366796858 0.0356575999255 0.0
0.734417696776 0.00831205573496 0.0
-0.0189985945036 0.130733892634 0.0
-0.00431311126089 0.0781855350044 0.0
-0.0493725177894 -0.154981502307 0.0
-0.0124394890961 -0.0692888117682 0.0
-0.0579850660187 0.00148390565724 0.0
-0.0357696961783 0.00136120093527 0.0
-0.14594344307 -0.456475311496 0.0
-0.139232098259 -0.449341991298 0.0
0.120605677973 0.137446467646 0.0
0.0217815277531 0.185593644322 0.0
-0.0490984512938 -0.0199554861419 0.0
-0.0459724188403 -0.0281940741953 0.0
-0.0302934853181 0.068988580331 0.0
-0.0365857361313 0.0581853278124 0.0
0.148532992841 0.0817652554455 0.0
0.272875142142 0.0663653641904 0.0
0.178735028952 0.0979550153193 0.0
-0.0612389201873 0.187636989654 0.0
-0.0392385809017 0.163785321309 0.0
-0.0522516673824 0.158595852677 0.0
-0.146280923068 -0.223818107008 0.0
-0.100664966089 -0.214119838387 0.0
-0.146280383225 -0.268549089358 0.0
-0.103200052131 0.00570058674836 0.0
-0.0811296990287 0.00172696146155 0.0
-0.0933302649296 -0.00396925733139 0.0
-0.158121816496 -0.0145869846493 0.0
-0.103166354654 -0.0364920286947 0.0
-0.0888637880184 0.0286917562784 0.0
-0.0879587581316 0.222644744677 0.0
-0.106932251107 0.207244579139 0.0
-0.209537957277 -0.0938764480564 0.0
-0.175274490931 -0.112502482402 0.0
-0.206362027485 -0.135254046253 0.0
-0.131801316731 0.0610194259898 0.0
-0.147939743992 0.0445382841803 0.0
0.229276678313 -0.157532287464 0.0
0.223487441556 -0.105819012109 0.0
0.0739255589316 -0.213233590865 0.0
-0.0522377003882 0.252563922839 0.0
-0.0451008790788 0.248282260228 0.0
-0.0532178821899 0.254405108246 0.0
-0.0189981225182 -0.031901720528 0.0
-0.0343297910344 -0.0546802163071 0.0
-0.0378949582225 -0.0457435115527 0.0
-0.0344386797769 0.0201114368981 0.0
-0.0510154218109 0.0241463423734 0.0
-0.047316841699 0.034363673279 0.0
-0.142941566777 -0.12289067261 0.0
-0.0682440950116 0.225346552754 0.0
-0.149536095676 -0.0852166014342 0.0
-0.116611461797 0.0783582840271 0.0
-0.191756810095 0.0133417389709 0.0
-0.211811242518 -0.049350317818 0.0
-0.225690111162 -0.118788924446 0.0
-0.210923099034 -0.0563772270853 0.0
-0.185487734916 -0.0480822304158 0.0
0.781805882642 0.0016892190253 0.0
-0.00303199851456 0.0790048617318 0.0
-0.00787559987956 -0.0413384004001 0.0
-0.0328889436712 0.00202664535882 0.0
0.0996722019162 0.129379137391 0.0
0.0553000117132 0.157000392073 0.0
-0.190162195518 -0.299288466148 0.0
-0.211605923626 -0.321797096492 0.0
-0.0671974658495 0.150981313759 0.0
-0.0739766639045 0.132686538441 0.0
-0.106247789514 -0.0118960645937 0.0
-0.108769784717 -0.023513789365 0.0
0.426454103828 -0.0936425194032 0.0
0.656459945849 -0.0376644866407 0.0
-0.0381238412186 0.222862377674 0.0
-0.0176885317739 0.154247502741 0.0
-0.0066822084927 -0.0171247013328 0.0
-0.000811990876544 -0.00476919528301 0.0
-0.0222631406444 0.00965246840199 0.0
-0.0113762578 0.00302594637388 0.0
-0.0425057685862 -0.420450181529 0.0
-0.0924048491115 -0.530173071373 0.0
-0.00810082957592 -0.0031441760441 0.0
-0.0157623885575 -0.01010606043 0.0
0.418298884643 0.0524075292595 0.0
0.122139517611 0.130347814721 0.0
-0.0023930930383 0.0110130647565 0.0
-0.0110360346007 0.0262025019864 0.0
-0.032871355367 0.222496762663 0.0
0.34619966141 -0.0430861104417 0.0
-0.053496059687 0.0163857020118 0.0
-0.0319674517871 -0.0644358302718 0.0
-0.0629700682075 -0.348581474729 0.0
-0.0957539129438 -0.47084503447 0.0
-0.0369670332304 0.23069484926 0.0
-0.00177370895643 0.194513149335 0.0
-0.0422915186635 -0.0371996226248 0.0
-0.0270661622772 -0.0212906218583 0.0
-0.0426546341986 0.0462901885934 0.0
-0.0249375078301 0.038176707736 0.0
-0.000306249689234 -0.00282746761908 0.0
0.566281727309 -0.063544369262 0.0
-0.00682857580177 0.00275719053341 0.0
-0.0329897442245 0.195015982904 0.0
-0.0499313311334 -0.482859863276 0.0
-0.00407654050816 -0.00248488284192 0.0
0.309854829538 0.0782713214492 0.0
-0.00170560249655 0.00665012964948 0.0
0.346135263259 0.0382715393528 0.0
-0.0315935902163 0.174115037636 0.0
-0.0683521743104 -0.155402972747 0.0
-0.0726925029199 0.00647761415948 0.0
-0.00286044217177 -0.00734437700946 0.0
-0.0100990975987 0.00803958411764 0.0
0.259074725687 -0.2044230979 0.0
-0.0744322127232 0.26109385788 0.0
-0.0451364803721 -0.510200486381 0.0
-0.00496159173852 -0.00647333351451 0.0
-0.00801356260843 0.193269118427 0.0
-0.00679514366005 0.0120783892597 0.0
-0.0378411476842 -0.238620267841 0.0
-0.0457197748013 0.244876767377 0.0
-0.0640452999342 -0.0578839445105 0.0
-0.0629868184932 0.0519743205288 0.0
-0.0301487718346 0.0754895412515 0.0
-0.101982133026 0.0767977349658 0.0
-0.103233713337 0.199540685822 0.0
-0.12844164689 0.182773971934 0.0
-0.208284436254 -0.178761601757 0.0
-0.142153467279 0.0219923889149 0.0
0.174881794565 0.111495687945 0.0
-0.0475435812396 0.134148053865 0.0
0.112346049806 0.13948449914 0.0
-0.053909157033 0.119494088409 0.0
-0.153452251302 -0.316065559332 0.0
-0.0858176127683 -0.0110217822019 0.0
-0.182078594919 -0.359673415036 0.0
-0.0873269759795 -0.0198757133175 0.0
0.791965092365 -0.0069701448272 0.0
0.550577940477 -0.024102025733 0.0
-0.00482657027946 0.0915989294958 0.0
-0.0171670140588 0.173201207253 0.0
0.305632921091 0.0778553933401 0.0
0.450575779764 -0.0103032751243 0.0
-0.0227791092925 0.188391359797 0.0
-0.0878078246028 -0.401216533446 0.0
-0.0141689538493 0.0524011471664 0.0
-0.0337801965465 -0.0098074768561 0.0
0.636873059696 0.0227700870914 0.0
-0.0252476769612 -0.219276488227 0.0
-0.00375590591345 0.0313755010536 0.0
-0.024502367788 -0.00306158001408 0.0
-0.00201920473043 -0.0163805765475 0.0
-0.0123618456385 -0.0394393069135 0.0
-0.0251904635728 0.00217362267627 0.0
-0.037456299242 0.00768460748197 0.0
-0.0287081436089 -0.0723234390205 0.0
-0.0530500971577 0.0103292574339 0.0
0.0534216313169 0.0794992513784 0.0
-0.0819431099083 0.201201375237 0.0
-0.179133844466 -0.204005054291 0.0
-0.122766962888 0.0141472520047 0.0
-0.119670496802 0.114015665435 0.0
-0.159285564115 0.0699618604324 0.0
-0.14792745571 0.154750146234 0.0
0.222913419774 -0.201962366255 0.0
-0.0643471029893 0.256193996222 0.0
-0.0563962211347 -0.479264226297 0.0
-0.00967241081331 -0.0174423834838 0.0
-0.0214784580212 0.202505883811 0.0
-0.0212677137237 0.0149422917979 0.0
-0.0140488625244 -0.0137941338793 0.0
-0.0155828078529 0.0235321327381 0.0
0.240571589071 0.0276601404747 0.0
0.125465450916 0.0480980762228 0.0
-0.0447552182321 0.208599786915 0.0
-0.0638087776447 0.213294193584 0.0
-0.132664019275 -0.178071502967 0.0
-0.0856687444618 -0.14753749383 0.0
-0.0839753489821 0.0146887918777 0.0
-0.104429315114 0.0179897133524 0.0
-0.059025234078 0.205687448981 0.0
-0.207630720293 -0.172577849215 0.0
-0.119332005997 0.103253207734 0.0
-0.155551344451 -0.0588246834418 0.0
0.0648049225083 -0.351616448687 0.0
-0.072938679604 0.248031965708 0.0
-0.00816403994788 -0.0121647541957 0.0
-0.0144048403515 0.0156693575897 0.0
-0.200682360526 0.0492100107839 0.0
0.585892879 0.00186389804696 0.0
0.809792461646 -0.00268605171339 0.0
-0.0123399361024 0.14188291185 0.0
-0.00306487347948 0.0789813168308 0.0
0.394101811142 0.0132032218928 0.0
-0.0270057081362 0.18479096877 0.0
-0.0195371870728 -0.0664874309905 0.0
-0.00421233723127 -0.0234337321939 0.0
-0.0451857384846 0.00531836829887 0.0
-0.0286589808694 0.00196059594063 0.0