# vtk DataFile Version 2.0
2D Simulation Python
ASCII
DATASET UNSTRUCTURED_GRID
FIELD FieldData 1
NODES 1 2 int
7905 15488

POINTS 7905 double
0.0 0.0 0.0
1.0 0.0 0.0
1.0 1.0 0.0
0.0 1.0 0.0
0.01249999999997639 0.0 0.0
0.02499999999995297 0.0 0.0
0.03749999999992721 0.0 0.0
0.04999999999989927 0.0 0.0
0.0624999999998716 0.0 0.0
0.07499999999985263 0.0 0.0
0.08749999999983366 0.0 0.0
0.09999999999981467 0.0 0.0
0.1124999999997956 0.0 0.0
0.1249999999997765 0.0 0.0
0.1374999999997401 0.0 0.0
0.1499999999997036 0.0 0.0
0.1624999999996672 0.0 0.0
0.1749999999996308 0.0 0.0
0.1874999999995943 0.0 0.0
0.1999999999995579 0.0 0.0
0.2124999999995214 0.0 0.0
0.224999999999485 0.0 0.0
0.2374999999994485 0.0 0.0
0.2499999999994121 0.0 0.0
0.2624999999993757 0.0 0.0
0.2749999999993393 0.0 0.0
0.2874999999993028 0.0 0.0
0.2999999999992664 0.0 0.0
0.3124999999992299 0.0 0.0
0.3249999999991935 0.0 0.0
0.3374999999991571 0.0 0.0
0.3499999999991207 0.0 0.0
0.3624999999990842 0.0 0.0
0.3749999999990478 0.0 0.0
0.3874999999990113 0.0 0.0
0.3999999999989749 0.0 0.0
0.4124999999989398 0.0 0.0
0.4249999999989048 0.0 0.0
0.4374999999988697 0.0 0.0
0.4499999999988346 0.0 0.0
0.4624999999987995 0.0 0.0
0.4749999999987644 0.0 0.0
0.4874999999987293 0.0 0.0
0.4999999999986943 0.0 0.0
0.5124999999987259 0.0 0.0
0.5249999999987575 0.0 0.0
0.5374999999987891 0.0 0.0
0.5499999999988205 0.0 0.0
0.5624999999988521 0.0 0.0
0.5749999999988837 0.0 0.0
0.5874999999989152 0.0 0.0
0.5999999999989468 0.0 0.0
0.6124999999989797 0.0 0.0
0.6249999999990127 0.0 0.0
0.6374999999990456 0.0 0.0
0.6499999999990784 0.0 0.0
0.6624999999991114 0.0 0.0
0.6749999999991443 0.0 0.0
0.6874999999991771 0.0 0.0
0.69999999999921 0.0 0.0
0.712499999999243 0.0 0.0
0.7249999999992759 0.0 0.0
0.7374999999993088 0.0 0.0
0.7499999999993416 0.0 0.0
0.7624999999993746 0.0 0.0
0.7749999999994075 0.0 0.0
0.7874999999994404 0.0 0.0
0.7999999999994734 0.0 0.0
0.8124999999995063 0.0 0.0
0.8249999999995392 0.0 0.0
0.8374999999995721 0.0 0.0
0.8499999999996051 0.0 0.0
0.862499999999638 0.0 0.0
0.8749999999996709 0.0 0.0
0.8874999999997039 0.0 0.0
0.8999999999997368 0.0 0.0
0.9124999999997697 0.0 0.0
0.9249999999998026 0.0 0.0
0.9374999999998355 0.0 0.0
0.9499999999998684 0.0 0.0
0.9624999999999013 0.0 0.0
0.9749999999999343 0.0 0.0
0.9874999999999672 0.0 0.0
1.0 0.01249999999997639 0.0
1.0 0.02499999999995297 0.0
1.0 0.03749999999992721 0.0
1.0 0.04999999999989927 0.0
1.0 0.0624999999998716 0.0
1.0 0.07499999999985263 0.0
1.0 0.08749999999983366 0.0
1.0 0.09999999999981467 0.0
1.0 0.1124999999997956 0.0
1.0 0.1249999999997765 0.0
1.0 0.1374999999997401 0.0
1.0 0.1499999999997036 0.0
1.0 0.1624999999996672 0.0
1.0 0.1749999999996308 0.0
1.0 0.1874999999995943 0.0
1.0 0.1999999999995579 0.0
1.0 0.2124999999995214 0.0
1.0 0.224999999999485 0.0
1.0 0.2374999999994485 0.0
1.0 0.2499999999994121 0.0
1.0 0.2624999999993757 0.0
1.0 0.2749999999993393 0.0
1.0 0.2874999999993028 0.0
1.0 0.2999999999992664 0.0
1.0 0.3124999999992299 0.0
1.0 0.3249999999991935 0.0
1.0 0.3374999999991571 0.0
1.0 0.3499999999991207 0.0
1.0 0.3624999999990842 0.0
1.0 0.3749999999990478 0.0
1.0 0.3874999999990113 0.0
1.0 0.3999999999989749 0.0
1.0 0.4124999999989398 0.0
1.0 0.4249999999989048 0.0
1.0 0.4374999999988697 0.0
1.0 0.4499999999988346 0.0
1.0 0.4624999999987995 0.0
1.0 0.4749999999987644 0.0
1.0 0.4874999999987293 0.0
1.0 0.4999999999986943 0.0
1.0 0.5124999999987259 0.0
1.0 0.5249999999987575 0.0
1.0 0.5374999999987891 0.0
1.0 0.5499999999988205 0.0
1.0 0.5624999999988521 0.0
1.0 0.5749999999988837 0.0
1.0 0.5874999999989152 0.0
1.0 0.5999999999989468 0.0
1.0 0.6124999999989797 0.0
1.0 0.6249999999990127 0.0
1.0 0.6374999999990456 0.0
1.0 0.6499999999990784 0.0
1.0 0.6624999999991114 0.0
1.0 0.6749999999991443 0.0
1.0 0.6874999999991771 0.0
1.0 0.69999999999921 0.0
1.0 0.712499999999243 0.0
1.0 0.7249999999992759 0.0
1.0 0.7374999999993088 0.0
1.0 0.7499999999993416 0.0
1.0 0.7624999999993746 0.0
1.0 0.7749999999994075 0.0
1.0 0.7874999999994404 0.0
1.0 0.7999999999994734 0.0
1.0 0.8124999999995063 0.0
1.0 0.8249999999995392 0.0
1.0 0.8374999999995721 0.0
1.0 0.8499999999996051 0.0
1.0 0.862499999999638 0.0
1.0 0.8749999999996709 0.0
1.0 0.8874999999997039 0.0
1.0 0.8999999999997368 0.0
1.0 0.9124999999997697 0.0
1.0 0.9249999999998026 0.0
1.0 0.9374999999998355 0.0
1.0 0.9499999999998684 0.0
1.0 0.9624999999999013 0.0
1.0 0.9749999999999343 0.0
1.0 0.9874999999999672 0.0
0.9874999999999439 1.0 0.0
0.9749999999998877 1.0 0.0
0.9624999999998541 1.0 0.0
0.9499999999998356 1.0 0.0
0.9374999999997805 1.0 0.0
0.9249999999996992 1.0 0.0
0.9124999999996414 1.0 0.0
0.8999999999995836 1.0 0.0
0.8874999999996454 1.0 0.0
0.8749999999997078 1.0 0.0
0.8624999999997771 1.0 0.0
0.8499999999998515 1.0 0.0
0.837499999999895 1.0 0.0
0.8249999999999216 1.0 0.0
0.8124999999999571 1.0 0.0
0.7999999999999998 1.0 0.0
0.7875000000000937 1.0 0.0
0.77500000000021 1.0 0.0
0.7625000000002968 1.0 0.0
0.7500000000003858 1.0 0.0
0.7375000000004739 1.0 0.0
0.7250000000005448 1.0 0.0
0.7125000000005861 1.0 0.0
0.7000000000006934 1.0 0.0
0.6875000000008109 1.0 0.0
0.6750000000009306 1.0 0.0
0.6625000000010091 1.0 0.0
0.6500000000010593 1.0 0.0
0.6375000000011386 1.0 0.0
0.6250000000012101 1.0 0.0
0.612500000001312 1.0 0.0
0.6000000000013869 1.0 0.0
0.5875000000014601 1.0 0.0
0.5750000000015277 1.0 0.0
0.5625000000016089 1.0 0.0
0.5500000000016854 1.0 0.0
0.5375000000017889 1.0 0.0
0.5250000000018821 1.0 0.0
0.5125000000019756 1.0 0.0
0.5000000000020587 1.0 0.0
0.4875000000020093 1.0 0.0
0.4750000000019601 1.0 0.0
0.4625000000019108 1.0 0.0
0.4500000000018616 1.0 0.0
0.4375000000018123 1.0 0.0
0.425000000001763 1.0 0.0
0.4125000000017136 1.0 0.0
0.4000000000016644 1.0 0.0
0.3875000000016123 1.0 0.0
0.3750000000015603 1.0 0.0
0.3625000000015083 1.0 0.0
0.3500000000014563 1.0 0.0
0.3375000000014042 1.0 0.0
0.3250000000013522 1.0 0.0
0.3125000000013003 1.0 0.0
0.3000000000012483 1.0 0.0
0.2875000000011962 1.0 0.0
0.2750000000011442 1.0 0.0
0.2625000000010922 1.0 0.0
0.2500000000010403 1.0 0.0
0.2375000000009883 1.0 0.0
0.2250000000009362 1.0 0.0
0.2125000000008842 1.0 0.0
0.2000000000008322 1.0 0.0
0.1875000000007802 1.0 0.0
0.1750000000007281 1.0 0.0
0.1625000000006761 1.0 0.0
0.1500000000006241 1.0 0.0
0.1375000000005721 1.0 0.0
0.12500000000052 1.0 0.0
0.112500000000468 1.0 0.0
0.100000000000416 1.0 0.0
0.08750000000036395 1.0 0.0
0.07500000000031193 1.0 0.0
0.06250000000026001 1.0 0.0
0.05000000000020799 1.0 0.0
0.03750000000015596 1.0 0.0
0.02500000000010394 1.0 0.0
0.01250000000005191 1.0 0.0
0.0 0.9874999999999439 0.0
0.0 0.9749999999998877 0.0
0.0 0.9624999999998541 0.0
0.0 0.9499999999998356 0.0
0.0 0.9374999999997805 0.0
0.0 0.9249999999996992 0.0
0.0 0.9124999999996414 0.0
0.0 0.8999999999995836 0.0
0.0 0.8874999999996454 0.0
0.0 0.8749999999997078 0.0
0.0 0.8624999999997771 0.0
0.0 0.8499999999998515 0.0
0.0 0.837499999999895 0.0
0.0 0.8249999999999216 0.0
0.0 0.8124999999999571 0.0
0.0 0.7999999999999998 0.0
0.0 0.7875000000000937 0.0
0.0 0.77500000000021 0.0
0.0 0.7625000000002968 0.0
0.0 0.7500000000003858 0.0
0.0 0.7375000000004739 0.0
0.0 0.7250000000005448 0.0
0.0 0.7125000000005861 0.0
0.0 0.7000000000006934 0.0
0.0 0.6875000000008109 0.0
0.0 0.6750000000009306 0.0
0.0 0.6625000000010091 0.0
0.0 0.6500000000010593 0.0
0.0 0.6375000000011386 0.0
0.0 0.6250000000012101 0.0
0.0 0.612500000001312 0.0
0.0 0.6000000000013869 0.0
0.0 0.5875000000014601 0.0
0.0 0.5750000000015277 0.0
0.0 0.5625000000016089 0.0
0.0 0.5500000000016854 0.0
0.0 0.5375000000017889 0.0
0.0 0.5250000000018821 0.0
0.0 0.5125000000019756 0.0
0.0 0.5000000000020587 0.0
0.0 0.4875000000020093 0.0
0.0 0.4750000000019601 0.0
0.0 0.4625000000019108 0.0
0.0 0.4500000000018616 0.0
0.0 0.4375000000018123 0.0
0.0 0.425000000001763 0.0
0.0 0.4125000000017136 0.0
0.0 0.4000000000016644 0.0
0.0 0.3875000000016123 0.0
0.0 0.3750000000015603 0.0
0.0 0.3625000000015083 0.0
0.0 0.3500000000014563 0.0
0.0 0.3375000000014042 0.0
0.0 0.3250000000013522 0.0
0.0 0.3125000000013003 0.0
0.0 0.3000000000012483 0.0
0.0 0.2875000000011962 0.0
0.0 0.2750000000011442 0.0
0.0 0.2625000000010922 0.0
0.0 0.2500000000010403 0.0
0.0 0.2375000000009883 0.0
0.0 0.2250000000009362 0.0
0.0 0.2125000000008842 0.0
0.0 0.2000000000008322 0.0
0.0 0.1875000000007802 0.0
0.0 0.1750000000007281 0.0
0.0 0.1625000000006761 0.0
0.0 0.1500000000006241 0.0
0.0 0.1375000000005721 0.0
0.0 0.12500000000052 0.0
0.0 0.112500000000468 0.0
0.0 0.100000000000416 0.0
0.0 0.08750000000036395 0.0
0.0 0.07500000000031193 0.0
0.0 0.06250000000026001 0.0
0.0 0.05000000000020799 0.0
0.0 0.03750000000015596 0.0
0.0 0.02500000000010394 0.0
0.0 0.01250000000005191 0.0
0.499547313951317 0.4984202829398231 0.0
0.7057142553715264 0.7049957919913439 0.0
0.2942617789825218 0.706558362574613 0.0
0.7052750732513358 0.29408370064617073 0.0
0.2941161372558304 0.29425664999463297 0.0
0.49473409022248005 0.7865288457870021 0.0
0.21400675843102512 0.49559804899934157 0.0
0.7879606576561358 0.5053778129282838 0.0
0.505369301426186 0.2119891966328729 0.0
0.8286074034533916 0.8287576993256224 0.0
0.17122528584787128 0.8286011816233976 0.0
0.8287577004551061 0.17139259539200086 0.0
0.17140751986106711 0.17123186221929698 0.0
0.6412438345717256 0.8516520873564006 0.0
0.14868333985619164 0.6419476520576217 0.0
0.36001439100831745 0.8471882363166383 0.0
0.8472916681795735 0.639858398754968 0.0
0.8516551147624887 0.3587551765143301 0.0
0.1529024464427883 0.36006180552290556 0.0
0.3587547979315107 0.148343271772372 0.0
0.6398585806283599 0.15270777331315408 0.0
0.5665851234669081 0.6415505082226679 0.0
0.3688065763014604 0.5781443560211958 0.0
0.6448511073779454 0.4469929790001165 0.0
0.43335085497228876 0.35323599965884955 0.0
0.42653529248703315 0.6555720715037009 0.0
0.6657620768186652 0.5502649260729648 0.0
0.3566111211511165 0.42874186251021185 0.0
0.5447859278293945 0.34262223816401394 0.0
0.4594948214297615 0.8920313032464312 0.0
[...]
POINT_DATA 7905
VECTORS vector double
0.0 0.0 0.0
0.0 0.0 0.0
0.0 0.0 0.0
0.0 0.0 0.0
0.0 0.0 0.0
0.0 0.0 0.0
0.0 0.0 0.0
0.0 0.0 0.0
0.0 0.0 0.0
0.0 0.0 0.0
0.0 0.0 0.0
0.0 0.0 0.0
0.0 0.0 0.0
0.0 0.0 0.0
0.0 0.0 0.0
0.0 0.0 0.0
0.0 0.0 0.0
0.0 0.0 0.0
0.0 0.0 0.0
0.0 0.0 0.0
0.0 0.0 0.0
0.0 0.0 0.0
0.0 0.0 0.0
0.0 0.0 0.0
0.0 0.0 0.0
0.0 0.0 0.0
0.0 0.0 0.0
0.0 0.0 0.0
0.0 0.0 0.0
0.0 0.0 0.0
0.0 0.0 0.0
0.0 0.0 0.0
0.0 0.0 0.0
0.0 0.0 0.0
0.0 0.0 0.0
0.0 0.0 0.0
0.0 0.0 0.0
0.0 0.0 0.0
0.0 0.0 0.0
0.0 0.0 0.0
0.0 0.0 0.0
0.0 0.0 0.0
0.0 0.0 0.0
0.0 0.0 0.0
0.0 0.0 0.0
0.0 0.0 0.0
0.0 0.0 0.0
0.0 0.0 0.0
0.0 0.0 0.0
0.0 0.0 0.0
0.0 0.0 0.0
0.0 0.0 0.0
0.0 0.0 0.0
0.0 0.0 0.0
0.0 0.0 0.0
0.0 0.0 0.0
0.0 0.0 0.0
0.0 0.0 0.0
0.0 0.0 0.0
0.0 0.0 0.0
0.0 0.0 0.0
0.0 0.0 0.0
0.0 0.0 0.0
0.0 0.0 0.0
0.0 0.0 0.0
0.0 0.0 0.0
0.0 0.0 0.0
0.0 0.0 0.0
0.0 0.0 0.0
0.0 0.0 0.0
0.0 0.0 0.0
0.0 0.0 0.0
0.0 0.0 0.0
0.0 0.0 0.0
0.0 0.0 0.0
0.0 0.0 0.0
0.0 0.0 0.0
0.0 0.0 0.0
0.0 0.0 0.0
0.0 0.0 0.0
0.0 0.0 0.0
0.0 0.0 0.0
0.0 0.0 0.0
0.0 0.0 0.0
0.0 0.0 0.0
0.0 0.0 0.0
0.0 0.0 0.0
0.0 0.0 0.0
0.0 0.0 0.0
0.0 0.0 0.0
0.0 0.0 0.0
0.0 0.0 0.0
0.0 0.0 0.0
0.0 0.0 0.0
0.0 0.0 0.0
0.0 0.0 0.0
0.0 0.0 0.0
0.0 0.0 0.0
0.0 0.0 0.0
0.0 0.0 0.0
0.0 0.0 0.0
0.0 0.0 0.0
0.0 0.0 0.0
0.0 0.0 0.0
0.0 0.0 0.0
0.0 0.0 0.0
0.0 0.0 0.0
0.0 0.0 0.0
0.0 0.0 0.0
0.0 0.0 0.0
0.0 0.0 0.0
0.0 0.0 0.0
0.0 0.0 0.0
0.0 0.0 0.0
0.0 0.0 0.0
0.0 0.0 0.0
0.0 0.0 0.0
0.0 0.0 0.0
0.0 0.0 0.0
0.0 0.0 0.0
0.0 0.0 0.0
0.0 0.0 0.0
0.0 0.0 0.0
0.0 0.0 0.0
0.0 0.0 0.0
0.0 0.0 0.0
0.0 0.0 0.0
0.0 0.0 0.0
0.0 0.0 0.0
0.0 0.0 0.0
0.0 0.0 0.0
0.0 0.0 0.0
0.0 0.0 0.0
0.0 0.0 0.0
0.0 0.0 0.0
0.0 0.0 0.0
0.0 0.0 0.0
0.0 0.0 0.0
0.0 0.0 0.0
0.0 0.0 0.0
0.0 0.0 0.0
0.0 0.0 0.0
0.0 0.0 0.0
0.0 0.0 0.0
0.0 0.0 0.0
0.0 0.0 0.0
0.0 0.0 0.0
0.0 0.0 0.0
0.0 0.0 0.0
0.0 0.0 0.0
0.0 0.0 0.0
0.0 0.0 0.0
0.0 0.0 0.0
0.0 0.0 0.0
0.0 0.0 0.0
0.0 0.0 0.0
0.0 0.0 0.0
0.0 0.0 0.0
0.0 0.0 0.0
0.0 0.0 0.0
0.0 0.0 0.0
0.0 0.0 0.0
1.0 0.0 0.0
1.0 0.0 0.0
1.0 0.0 0.0
1.0 0.0 0.0
1.0 0.0 0.0
1.0 0.0 0.0
1.0 0.0 0.0
1.0 0.0 0.0
1.0 0.0 0.0
1.0 0.0 0.0
1.0 0.0 0.0
1.0 0.0 0.0
1.0 0.0 0.0
1.0 0.0 0.0
1.0 0.0 0.0
1.0 0.0 0.0
1.0 0.0 0.0
1.0 0.0 0.0
1.0 0.0 0.0
1.0 0.0 0.0
1.0 0.0 0.0
1.0 0.0 0.0
1.0 0.0 0.0
1.0 0.0 0.0
1.0 0.0 0.0
1.0 0.0 0.0
1.0 0.0 0.0
1.0 0.0 0.0
1.0 0.0 0.0
1.0 0.0 0.0
1.0 0.0 0.0
1.0 0.0 0.0
1.0 0.0 0.0
1.0 0.0 0.0
1.0 0.0 0.0
1.0 0.0 0.0
1.0 0.0 0.0
1.0 0.0 0.0
1.0 0.0 0.0
1.0 0.0 0.0
1.0 0.0 0.0
1.0 0.0 0.0
1.0 0.0 0.0
1.0 0.0 0.0
1.0 0.0 0.0
1.0 0.0 0.0
1.0 0.0 0.0
1.0 0.0 0.0
1.0 0.0 0.0
1.0 0.0 0.0
1.0 0.0 0.0
1.0 0.0 0.0
1.0 0.0 0.0
1.0 0.0 0.0
1.0 0.0 0.0
1.0 0.0 0.0
1.0 0.0 0.0
1.0 0.0 0.0
1.0 0.0 0.0
1.0 0.0 0.0
1.0 0.0 0.0
1.0 0.0 0.0
1.0 0.0 0.0
1.0 0.0 0.0
1.0 0.0 0.0
1.0 0.0 0.0
1.0 0.0 0.0
1.0 0.0 0.0
1.0 0.0 0.0
1.0 0.0 0.0
1.0 0.0 0.0
1.0 0.0 0.0
1.0 0.0 0.0
1.0 0.0 0.0
1.0 0.0 0.0
1.0 0.0 0.0
1.0 0.0 0.0
1.0 0.0 0.0
1.0 0.0 0.0
0.0 0.0 0.0
0.0 0.0 0.0
0.0 0.0 0.0
0.0 0.0 0.0
0.0 0.0 0.0
0.0 0.0 0.0
0.0 0.0 0.0
0.0 0.0 0.0
0.0 0.0 0.0
0.0 0.0 0.0
0.0 0.0 0.0
0.0 0.0 0.0
0.0 0.0 0.0
0.0 0.0 0.0
0.0 0.0 0.0
0.0 0.0 0.0
0.0 0.0 0.0
0.0 0.0 0.0
0.0 0.0 0.0
0.0 0.0 0.0
0.0 0.0 0.0
0.0 0.0 0.0
0.0 0.0 0.0
0.0 0.0 0.0
0.0 0.0 0.0
0.0 0.0 0.0
0.0 0.0 0.0
0.0 0.0 0.0
0.0 0.0 0.0
0.0 0.0 0.0
0.0 0.0 0.0
0.0 0.0 0.0
0.0 0.0 0.0
0.0 0.0 0.0
0.0 0.0 0.0
0.0 0.0 0.0
0.0 0.0 0.0
0.0 0.0 0.0
0.0 0.0 0.0
0.0 0.0 0.0
0.0 0.0 0.0
0.0 0.0 0.0
0.0 0.0 0.0
0.0 0.0 0.0
0.0 0.0 0.0
0.0 0.0 0.0
0.0 0.0 0.0
0.0 0.0 0.0
0.0 0.0 0.0
0.0 0.0 0.0
0.0 0.0 0.0
0.0 0.0 0.0
0.0 0.0 0.0
0.0 0.0 0.0
0.0 0.0 0.0
0.0 0.0 0.0
0.0 0.0 0.0
0.0 0.0 0.0
0.0 0.0 0.0
0.0 0.0 0.0
0.0 0.0 0.0
0.0 0.0 0.0
0.0 0.0 0.0
0.0 0.0 0.0
0.0 0.0 0.0
0.0 0.0 0.0
0.0 0.0 0.0
0.0 0.0 0.0
0.0 0.0 0.0
0.0 0.0 0.0
0.0 0.0 0.0
0.0 0.0 0.0
0.0 0.0 0.0
0.0 0.0 0.0
0.0 0.0 0.0
0.0 0.0 0.0
0.0 0.0 0.0
0.0 0.0 0.0
0.0 0.0 0.0
-0.0391819786038 0.00118162109427 0.0
-0.0713446501724 -0.0413838904227 0.0
-0.064874032507 0.0464925740559 0.0
-0.0187225931908 -0.0119113417388 0.0
-0.0181790739663 0.0120455046141 0.0
-0.0924632832831 0.00564138159354 0.0
-0.0273854129844 0.0350469799952 0.0
-0.0303844391615 -0.0374060648924 0.0
-0.0222545074491 -5.42615583838e-05 0.0
-0.149720992531 -0.103416836417 0.0
-0.111597428984 0.11139449457 0.0
-0.00979371777746 -0.00818640173155 0.0
-0.00957268012971 0.00802257130772 0.0
-0.0908503429836 -0.0133021322819 0.0
-0.0339878996433 0.0687906404334 0.0
-0.0935000395178 0.0275800242802 0.0
-0.0408096195587 -0.0726364813384 0.0
-0.0123693215152 -0.0239883550658 0.0
-0.0122200868273 0.0232955298685 0.0
-0.0179468737984 0.00342094129547 0.0
-0.0182560682409 -0.00342321855572 0.0
-0.0594993126096 -0.00928698215142 0.0
-0.053117372385 0.0225347893699 0.0
-0.0366815056224 -0.0155018056466 0.0
-0.0299851567019 0.00568026526644 0.0
-0.0594010996483 0.0159844263529 0.0
-0.0424542875276 -0.0242342123296 0.0
-0.0332493554918 0.0152722083294 0.0
-0.0297620701758 -0.00303258890632 0.0
-0.000518255204552 0.00814886600379 0.0
-0.0111724165043 0.0355485672772 0.0
-0.0171304419594 -0.0514943689909 0.0
-0.0198815207933 -0.000571479108473 0.0
0.0136015473223 -0.0192291285392 0.0
-0.0374540352102 0.10758557673 0.0
-0.00541302883834 -0.0149417806579 0.0
-0.0129295192313 0.00286349886981 0.0
-0.0533798366892 -0.123662465145 0.0
-0.0196060817505 0.042091041623 0.0
-0.0132791329607 -0.00295452652075 0.0
-0.00538234786617 0.0146448982703 0.0
-0.0972810964811 -0.0156697897629 0.0
-0.0512859608855 0.0442621487018 0.0
-0.0265736466618 -0.0214924567008 0.0
-0.0244806770557 0.00543896493462 0.0
-0.0919771617789 0.0244254949648 0.0
-0.0566235408824 -0.0441627931378 0.0
-0.0250176720125 0.0212504939448 0.0
-0.0246322317683 -0.00509859051416 0.0
-0.120956925108 -0.229627163915 0.0
-0.110478060803 0.211166314813 0.0
-0.0034798639571 -0.00339961546493 0.0
-0.00340978948782 0.00331629149821 0.0
0.097125608142 -0.000590389239356 0.0
-0.0109447127439 0.0516195113756 0.0
-0.00693492819523 -0.0315584430174 0.0
-0.0167045955883 0.000735071631796 0.0
-0.0817801889424 -0.0742905235995 0.0
-0.0990242050448 0.0547557399873 0.0
-0.016750654435 -0.00785198379544 0.0
-0.0141606487972 0.0146255879884 0.0
-0.112472371844 -0.0428963194081 0.0
-0.0674199703213 0.0753171421099 0.0
-0.0143254281241 -0.0148164080382 0.0
-0.0161982471136 0.00775850970032 0.0
-0.0615817688035 0.00465362402221 0.0
-0.0538960891137 -0.0105519990081 0.0
-0.0436533664579 0.0127879148789 0.0
-0.0373875669655 -0.00559374058573 0.0
-0.0663074832443 -0.0250891565681 0.0
-0.0567026417131 0.0305261554682 0.0
-0.0280158004188 -0.0105601692668 0.0
-0.0230284357978 0.0120511780782 0.0
0.139368147082 -0.00360359926162 0.0
-0.0106950772055 0.0670285902764 0.0
-0.00335701166749 -0.0204223544084 0.0
-0.0120898272063 0.00107487502004 0.0
-0.0138457667437 -0.0737421991545 0.0
-0.013083530873 -0.00115506878021 0.0
0.100322763273 0.013307534261 0.0
-0.00383515149357 0.0210281626457 0.0
0.0261678333976 -0.0444891008325 0.0
-0.0531405312051 0.165463281567 0.0
-0.00276737332858 -0.00785417403379 0.0
-0.00661084043011 0.00242873556308 0.0
-0.0822653422787 -0.211344374234 0.0
-0.00672287747432 -0.00248957089143 0.0
-0.0140479813466 0.0790893205079 0.0
-0.00272659755291 0.00767817050588 0.0
-0.0779535749053 0.00300149203487 0.0
-0.0380517747428 0.0261358730207 0.0
-0.032544093979 -0.0272459088807 0.0
-0.0225594742589 0.000447470608409 0.0
-0.0820907726826 -0.00237209810326 0.0
-0.0232364946589 0.0489692598913 0.0
-0.016274632233 -0.0336570585935 0.0
-0.0177095239738 0.0016113485237 0.0
-0.0480338607694 0.0166117905842 0.0
-0.00963599186976 0.0290894422803 0.0
-0.0170481522824 -0.0517197720865 0.0
-0.0102459768693 -0.00222108792382 0.0
-0.0370831157705 0.00446042079355 0.0
-0.0336356406158 0.000138570613665 0.0
-0.0330159731885 -0.0043420036906 0.0
-0.0373315440961 -0.000783207071447 0.0
-0.00111331649689 -0.00246282160473 0.0
-0.000786208712901 -0.000783510872285 0.0
-0.00237732034256 0.00104207646322 0.0
-0.000763934838134 0.000759489566911 0.0
0.218520449976 -0.110967694295 0.0
-0.00824543501979 -0.329823445215 0.0
-0.075507856159 0.251953397477 0.0
-0.0628705354372 0.278258631565 0.0
-0.00244277181533 -0.00107312698722 0.0
-0.00109150198825 0.002400709478 0.0
-0.114885457194 -0.359864542578 0.0
0.096389090602 0.133486565812 0.0
-0.0304955095342 0.00125696517477 0.0
-0.0334958383252 0.00522526707747 0.0
-0.0727487199167 0.0101653141816 0.0
-0.0818415755848 0.0121773618112 0.0
-0.0754718020863 0.0189054202842 0.0
-0.0428168703562 -0.0261885488362 0.0
-0.0427499886205 -0.0337353770186 0.0
-0.050972766257 -0.0318506436822 0.0
-0.0350451467524 0.02041570339 0.0
-0.0307035092631 0.0245506569712 0.0
-0.0294374644372 0.0190454231793 0.0
-0.0273551036344 -0.00119650704358 0.0
-0.0249013710209 -0.00220654352286 0.0
-0.0263522451513 -0.00459042612055 0.0
-0.0483174392902 0.0172662399395 0.0
-0.0507152673229 0.00961829910311 0.0
-0.0562590157171 0.0138635027361 0.0
-0.064251569098 0.0106947286582 0.0
-0.0608221209878 0.0188307067403 0.0
-0.0435063619584 -0.0133292803738 0.0
-0.0432941312828 -0.00764952050823 0.0
-0.0371745275876 -0.0103588003779 0.0
-0.0427773225244 -0.0193687472793 0.0
-0.0502946532787 -0.0180756827956 0.0
-0.0862273467173 0.00401947868216 0.0
-0.0888905806184 0.0130891193528 0.0
-0.0333403468651 0.0312340172462 0.0
-0.0260918838493 0.0280885116142 0.0
-0.0344415882907 -0.0318484898733 0.0
-0.0388695956777 -0.0402555625642 0.0
-0.0239783699802 0.000223081569744 0.0
-0.022871345793 -0.00200855527413 0.0
-0.0428440276467 0.0580681680589 0.0
-0.0566149334125 0.0592596700886 0.0
-0.0491835077877 0.073588628406 0.0
-0.10139245158 -0.0164769088267 0.0
-0.100888881885 -0.0284283505247 0.0
-0.10818428764 -0.025536410618 0.0
-0.0199770492872 0.00458849079621 0.0
-0.0195745977648 0.00705770849749 0.0
-0.0173943393023 0.0053678408145 0.0
-0.0180530329114 -0.0232662598052 0.0
-0.0185304574154 -0.0181169515272 0.0
-0.0136091479341 -0.0192348512384 0.0
-0.0712288298251 0.0586473046232 0.0
-0.062165057542 0.0473823272594 0.0
-0.0952768630125 -0.0432118347074 0.0
-0.0873340583025 -0.0300103268104 0.0
-0.0182897351186 0.00995638803061 0.0
-0.0216741669692 0.00907049756659 0.0
-0.0181645570901 -0.0136400883244 0.0
-0.0223260569337 -0.0155461721623 0.0
-0.0595594014934 -0.0764954324377 0.0
-0.0650920595086 -0.0586574612931 0.0
-0.0494537992377 -0.0597888253129 0.0
-0.102293132433 0.0401256164556 0.0
-0.0925522443776 0.0386613782961 0.0
-0.0963495920024 0.0286879472722 0.0
-0.0177739410478 -0.00537306888799 0.0
-0.0199720038737 -0.00695307670968 0.0
-0.0200468280951 -0.00457558504918 0.0
-0.0133332427131 0.0188073581062 0.0
-0.0179276205935 0.0178269884972 0.0
-0.0172243960229 0.0223594607523 0.0
-0.0357841957553 0.0100676078635 0.0
-0.0318724265661 0.0101132360179 0.0
0.362739661655 0.003601048862 0.0
0.356130032724 0.00246654793082 0.0
-0.00276215393266 0.0236398753224 0.0
-0.00343789095842 0.0295844317586 0.0
-0.0053209707919 -0.0442077599776 0.0
-0.00445141339036 -0.0361455917508 0.0
-0.0130306139605 -0.000301803229231 0.0
-0.0135983012244 -5.16220332964e-05 0.0
-0.00511064092038 -0.0494396163494 0.0
-0.0155972968313 -0.0638112739979 0.0
-0.0108985466256 -0.000383057634888 0.0
-0.0166174438529 -0.00106246663737 0.0
0.43503450647 0.00413919570212 0.0
0.0672983125439 0.0117184876885 0.0
-0.00171483126443 0.0170692838986 0.0
-0.00624720503181 0.0268772903585 0.0
-0.0366040575991 -0.0213591047069 0.0
-0.0276297353503 0.00253278097352 0.0
-0.0687155050558 -0.0448268068777 0.0
-0.0818488572231 -0.0548272897461 0.0
-0.0803603276784 0.0371949732961 0.0
-0.0841581696408 0.0506204324568 0.0
-0.0221282181839 -0.00875804252979 0.0
-0.0188285621455 -0.00995436670168 0.0
-0.0213853474535 0.0156440329458 0.0
-0.0176802761121 0.0135418250743 0.0
-0.0665117565809 0.0231183310888 0.0
-0.0585227723274 0.0273110098393 0.0
-0.0290486934038 0.0139164778461 0.0
-0.0281163286817 0.00930765188639 0.0
-0.0398870485988 0.00877621231605 0.0
-0.0380126015897 0.0147808723093 0.0
-0.0507476714635 0.00244410005821 0.0
-0.0449064007941 0.00652096042412 0.0
-0.0418632707415 -0.00232353592788 0.0
-0.0480878906967 -0.0036740180771 0.0
-0.0266702607971 -0.0638788010551 0.0
-0.0279169012844 -0.0786475721512 0.0
-0.0186168838994 -0.00186928675931 0.0
-0.0167659456693 -0.00217154207291 0.0
-0.0684323426167 0.0172595851152 0.0
-0.0343625709091 0.0216388633229 0.0
-0.0112994996941 0.0285499236891 0.0
-0.00780530052226 0.0234614124561 0.0
0.405861917445 -0.0043061013737 0.0
0.378717074643 -0.00755733662965 0.0
-0.00959041271316 0.0750080775012 0.0
-0.0151240549957 0.0979898933246 0.0
-0.00150669571127 -0.0115744068303 0.0
-0.00143795405613 -0.0090822027668 0.0
-0.00898310528243 0.000732231661598 0.0
-0.007659719638 0.000904303239474 0.0
-0.0224329428846 -0.117999273209 0.0
-0.0130179639022 -0.0865764634675 0.0
-0.00790992483011 -0.000941195706695 0.0
-0.00937116379982 -0.00076842698479 0.0
0.320038430104 0.0198925473554 0.0
0.357904284587 0.0122284467898 0.0
-0.00143742130711 0.00895314729422 0.0
-0.00153602824824 0.0115345717424 0.0
0.0512334317867 0.00243100331492 0.0
0.415401836398 0.00112443014863 0.0
-0.010603893544 0.0436982733147 0.0
-0.00335470283483 0.0336431544833 0.0
-0.0100448355067 -0.0397855597937 0.0
-0.00290717222449 -0.0270938972369 0.0
-0.0180174114369 0.000282737189559 0.0
-0.0124347090079 0.000159176578514 0.0
-0.0465148549486 -0.0932898133597 0.0
-0.0752831903329 -0.100368808467 0.0
-0.0815809610596 0.0356120024695 0.0
-0.107394380586 0.0551188376541 0.0
-0.0160594640117 -0.00358832060283 0.0
-0.0149077305176 -0.00557258664451 0.0
-0.00871484488829 0.0191717199133 0.0
-0.0099985793258 0.0151708166085 0.0
-0.0943232770433 0.00064926981444 0.0
-0.0747669764071 0.00297023622778 0.0
-0.091398097171 0.00763635156692 0.0
-0.0271204327446 0.0421922068875 0.0
-0.0185626644522 0.0437673056096 0.0
-0.0199604536301 0.037230313606 0.0
-0.0236552624787 -0.0355092252136 0.0
-0.017848794851 -0.0407654545617 0.0
-0.0247807697027 -0.0443309054814 0.0
-0.0212140670003 0.00105713543575 0.0
-0.0199262533022 0.000422991089733 0.0
-0.0206162477371 -0.000397875426684 0.0
-0.0677359721309 -0.0163753598501 0.0
-0.0779784190291 -0.0221226455179 0.0
-0.0770392961173 -0.0124138948989 0.0
-0.0585361458438 0.0367601649345 0.0
-0.0510183578519 0.0318902633883 0.0
-0.0316965198829 -0.0129781300587 0.0
-0.0270755757542 -0.0152223418848 0.0
-0.0312243595305 -0.0183548780063 0.0
-0.0248490270735 0.00876787670544 0.0
-0.0265597960981 0.00579423802563 0.0
-0.116652256495 -0.0510684996214 0.0
-0.11321829679 -0.0355389375713 0.0
-0.126674451056 -0.0639050534725 0.0
-0.0713715801925 0.118529403197 0.0
-0.0575554609745 0.0942305663574 0.0
-0.0842310434879 0.0923751329323 0.0
-0.00771561726076 -0.0118897153866 0.0
-0.0100387096721 -0.0154508735934 0.0
-0.0115957561033 -0.0115459845383 0.0
-0.0114995267934 0.00529924857159 0.0
-0.0144692691663 0.00544237778307 0.0
-0.0129214378477 0.00807731176604 0.0
-0.0737712824267 -0.0331168493927 0.0
-0.0684334354994 0.0377786246627 0.0
-0.0242019434525 -0.0116329442225 0.0
-0.0232579899908 0.0122090301746 0.0
-0.0604417440805 -0.0100956169918 0.0
-0.0587324458168 -0.0174996711169 0.0
-0.0561982425589 -0.0253364570134 0.0
-0.03238229056 -0.00848732006767 0.0
-0.028802269354 -0.00673972240719 0.0
0.465899755278 0.000201407373422 0.0
-0.00337695993919 0.0377908842323 0.0
-0.00192510024144 -0.0204029699618 0.0
-0.0110119810397 0.000260311806096 0.0
-0.0917146471797 0.0126608820038 0.0
-0.0911436089733 0.0196500679979 0.0
-0.0319451219557 -0.0457037460149 0.0
-0.0402702990163 -0.0498611357577 0.0
-0.0210950095475 0.0315169352539 0.0
-0.0201536679686 0.0262653919306 0.0
-0.020782447177 -0.00149953339681 0.0
-0.0208468199907 -0.00314510330317 0.0
0.0237564592052 -0.030292939901 0.0
0.401799491194 -0.0129776657335 0.0
-0.047874808109 0.136149675472 0.0
-0.0210406233674 0.123307021675 0.0
-0.00398963801531 -0.0107994730504 0.0
-0.00111705619653 -0.00626770915495 0.0
-0.00962745956279 0.00278880500499 0.0
-0.00560671636779 0.000851993086933 0.0
-0.0348279149096 -0.158917175302 0.0
-0.0734807194831 -0.164928724756 0.0
-0.00576461819936 -0.00088013862065 0.0
-0.00983597295473 -0.00287008240847 0.0
0.327889046722 0.0290742711574 0.0
-0.0155041323479 0.0606037050692 0.0
-0.00110373853068 0.00614780370511 0.0
-0.00394203223617 0.0105613647344 0.0
-0.0366753474852 0.0855694736798 0.0
-0.0730980517789 -0.0176072147151 0.0
-0.0156666330303 0.00354484882144 0.0
-0.00878164181859 -0.0195796124189 0.0
-0.1085430778 -0.090696158449 0.0
-0.101691312213 -0.130496514445 0.0
-0.10544287017 0.0768505555825 0.0
-0.110462909773 0.0766055423647 0.0
-0.0133369729705 -0.00824675845716 0.0
-0.0118004108951 -0.0054448629542 0.0
-0.0114396994156 0.0113836284311 0.0
-0.00764054972841 0.0116517591162 0.0
-0.00105158258057 -0.00420540205009 0.0
0.362987690547 -0.0334604052902 0.0
-0.00394051525885 0.000913416508488 0.0
-0.0380161283505 0.172313133204 0.0
-0.0671362266201 -0.242149697101 0.0
-0.0040469106371 -0.000940691514754 0.0
0.260471607363 0.056411397593 0.0
-0.00103399082522 0.00411148305311 0.0
-0.0556038268371 -0.00142037715883 0.0
-0.0191904205936 0.052232960487 0.0
-0.0130543009572 -0.0345911767853 0.0
-0.0189563765526 0.00119857611926 0.0
-0.00348943488355 -0.0059056368955 0.0
-0.00570515869429 0.00309422353576 0.0
-0.0374102846671 -0.100336481539 0.0
-0.0943325684264 0.196575679476 0.0
-0.149773031084 -0.245785159054 0.0
-0.00582275823102 -0.00317069082903 0.0
-0.0720721466758 0.131816086116 0.0
-0.0034251059564 0.00577035610913 0.0
-0.102782559224 -0.0623857360646 0.0
-0.0862249354573 0.0687111727845 0.0
-0.0153873845265 -0.0109767100417 0.0
-0.0149869944709 0.0108449361788 0.0
-0.0832589291499 -0.00513836727599 0.0
-0.0728556344175 -0.00411127692503 0.0
-0.0422309611737 0.0333948629426 0.0
-0.0455559667927 0.0253802910801 0.0
-0.0316925494315 -0.0245825830289 0.0
-0.0250510671963 0.00291592935822 0.0
-0.0883101399413 0.0138682538803 0.0
-0.0156956202664 0.0320635586734 0.0
-0.09339420724 0.0207850335825 0.0
-0.0154110438187 0.0269025567223 0.0
-0.0272181955438 -0.0531911295181 0.0
-0.019530472173 -0.00148744503853 0.0
-0.0356896839974 -0.0592500551285 0.0
-0.0192611989842 -0.00281609825555 0.0
0.48436471836 -0.00194883392635 0.0
0.0965358714107 -0.00789997670861 0.0
-0.00509957141126 0.0538568779944 0.0
-0.019730155822 0.0839633211264 0.0
0.0605769059488 0.022228759495 0.0
-0.010057552917 -0.00792774537749 0.0
-0.0224176881075 0.0736114053713 0.0
-0.0256461966757 -0.0936908935007 0.0
-0.00458811940034 0.0182607168805 0.0
-0.0140735902667 -0.00183212082528 0.0
0.43665536417 0.00637099879769 0.0
-0.00681474134457 -0.0613719017891 0.0
-0.00138357630981 0.0133986359548 0.0
-0.00973622578586 -0.000490389372966 0.0
-0.00125783833218 -0.0130079107434 0.0
-0.00447525977686 -0.0183685358805 0.0
-0.00905968260902 0.000444967682682 0.0
-0.0135419070714 0.00177248052316 0.0
-0.00741405359576 -0.0234823547272 0.0
-0.0160737805613 0.00213466620238 0.0
-0.0914202096778 -0.0032678414285 0.0
-0.0358955418773 0.0392838182907 0.0
-0.0277968256757 -0.0293115459099 0.0
-0.0229904056652 0.00215559956682 0.0
-0.0685357020203 0.00324138484673 0.0
-0.063771680819 -0.00311547353492 0.0
-0.0413317926504 0.0196084846155 0.0
-0.111727933021 -0.0744331324782 0.0
-0.0874421054528 0.149000603365 0.0
-0.132771693543 -0.170173742126 0.0
-0.00580664566714 -0.00883018829441 0.0
-0.108661485528 0.104435944918 0.0
-0.00859123552969 0.00469976225197 0.0
-0.00876158064366 -0.00481053267826 0.0
-0.00570422125308 0.00863221902074 0.0
-0.0923917055001 -0.00760672426906 0.0
-0.0963661011361 -0.00756216067498 0.0
-0.029985949802 0.0569487811015 0.0
-0.035502592394 0.0482832361397 0.0
-0.0216688273266 -0.0283161754146 0.0
-0.0156689792994 -0.0287556225236 0.0
-0.0194091656833 0.00263096003634 0.0
-0.0212461622825 0.00295783252652 0.0
-0.0741626580491 0.0283997099722 0.0
-0.0616472046255 -0.0345969461983 0.0
-0.0255007421205 0.0159534925286 0.0
-0.0253076850854 -0.00784536078867 0.0