# vtk DataFile Version 2.0
2D Simulation Python
ASCII
DATASET UNSTRUCTURED_GRID
FIELD FieldData 1
NODES 1 2 int
7905 15488

POINTS 7905 double
0.0 0.0 0.0
1.0 0.0 0.0
1.0 1.0 0.0
0.0 1.0 0.0
0.01249999999997639 0.0 0.0
0.02499999999995297 0.0 0.0
0.03749999999992721 0.0 0.0
0.04999999999989927 0.0 0.0
0.0624999999998716 0.0 0.0
0.07499999999985263 0.0 0.0
0.08749999999983366 0.0 0.0
0.09999999999981467 0.0 0.0
0.1124999999997956 0.0 0.0
0.1249999999997765 0.0 0.0
0.1374999999997401 0.0 0.0
0.1499999999997036 0.0 0.0
0.1624999999996672 0.0 0.0
0.1749999999996308 0.0 0.0
0.1874999999995943 0.0 0.0
0.1999999999995579 0.0 0.0
0.2124999999995214 0.0 0.0
0.224999999999485 0.0 0.0
0.2374999999994485 0.0 0.0
0.2499999999994121 0.0 0.0
0.2624999999993757 0.0 0.0
0.2749999999993393 0.0 0.0
0.2874999999993028 0.0 0.0
0.2999999999992664 0.0 0.0
0.3124999999992299 0.0 0.0
0.3249999999991935 0.0 0.0
0.3374999999991571 0.0 0.0
0.3499999999991207 0.0 0.0
0.3624999999990842 0.0 0.0
0.3749999999990478 0.0 0.0
0.3874999999990113 0.0 0.0
0.3999999999989749 0.0 0.0
0.4124999999989398 0.0 0.0
0.4249999999989048 0.0 0.0
0.4374999999988697 0.0 0.0
0.4499999999988346 0.0 0.0
0.4624999999987995 0.0 0.0
0.4749999999987644 0.0 0.0
0.4874999999987293 0.0 0.0
0.4999999999986943 0.0 0.0
0.5124999999987259 0.0 0.0
0.5249999999987575 0.0 0.0
0.5374999999987891 0.0 0.0
0.5499999999988205 0.0 0.0
0.5624999999988521 0.0 0.0
0.5749999999988837 0.0 0.0
0.5874999999989152 0.0 0.0
0.5999999999989468 0.0 0.0
0.6124999999989797 0.0 0.0
0.6249999999990127 0.0 0.0
0.6374999999990456 0.0 0.0
0.6499999999990784 0.0 0.0
0.6624999999991114 0.0 0.0
0.6749999999991443 0.0 0.0
0.6874999999991771 0.0 0.0
0.69999999999921 0.0 0.0
0.712499999999243 0.0 0.0
0.7249999999992759 0.0 0.0
0.7374999999993088 0.0 0.0
0.7499999999993416 0.0 0.0
0.7624999999993746 0.0 0.0
0.7749999999994075 0.0 0.0
0.7874999999994404 0.0 0.0
0.7999999999994734 0.0 0.0
0.8124999999995063 0.0 0.0
0.8249999999995392 0.0 0.0
0.8374999999995721 0.0 0.0
0.8499999999996051 0.0 0.0
0.862499999999638 0.0 0.0
0.8749999999996709 0.0 0.0
0.8874999999997039 0.0 0.0
0.8999999999997368 0.0 0.0
0.9124999999997697 0.0 0.0
0.9249999999998026 0.0 0.0
0.9374999999998355 0.0 0.0
0.9499999999998684 0.0 0.0
0.9624999999999013 0.0 0.0
0.9749999999999343 0.0 0.0
0.9874999999999672 0.0 0.0
1.0 0.01249999999997639 0.0
1.0 0.02499999999995297 0.0
1.0 0.03749999999992721 0.0
1.0 0.04999999999989927 0.0
1.0 0.0624999999998716 0.0
1.0 0.07499999999985263 0.0
1.0 0.08749999999983366 0.0
1.0 0.09999999999981467 0.0
1.0 0.1124999999997956 0.0
1.0 0.1249999999997765 0.0
1.0 0.1374999999997401 0.0
1.0 0.1499999999997036 0.0
1.0 0.1624999999996672 0.0
1.0 0.1749999999996308 0.0
1.0 0.1874999999995943 0.0
1.0 0.1999999999995579 0.0
1.0 0.2124999999995214 0.0
1.0 0.224999999999485 0.0
1.0 0.2374999999994485 0.0
1.0 0.2499999999994121 0.0
1.0 0.2624999999993757 0.0
1.0 0.2749999999993393 0.0
1.0 0.2874999999993028 0.0
1.0 0.2999999999992664 0.0
1.0 0.3124999999992299 0.0
1.0 0.3249999999991935 0.0
1.0 0.3374999999991571 0.0
1.0 0.3499999999991207 0.0
1.0 0.3624999999990842 0.0
1.0 0.3749999999990478 0.0
1.0 0.3874999999990113 0.0
1.0 0.3999999999989749 0.0
1.0 0.4124999999989398 0.0
1.0 0.4249999999989048 0.0
1.0 0.4374999999988697 0.0
1.0 0.4499999999988346 0.0
1.0 0.4624999999987995 0.0
1.0 0.4749999999987644 0.0
1.0 0.4874999999987293 0.0
1.0 0.4999999999986943 0.0
1.0 0.5124999999987259 0.0
1.0 0.5249999999987575 0.0
1.0 0.5374999999987891 0.0
1.0 0.5499999999988205 0.0
1.0 0.5624999999988521 0.0
1.0 0.5749999999988837 0.0
1.0 0.5874999999989152 0.0
1.0 0.5999999999989468 0.0
1.0 0.6124999999989797 0.0
1.0 0.6249999999990127 0.0
1.0 0.6374999999990456 0.0
1.0 0.6499999999990784 0.0
1.0 0.6624999999991114 0.0
1.0 0.6749999999991443 0.0
1.0 0.6874999999991771 0.0
1.0 0.69999999999921 0.0
1.0 0.712499999999243 0.0
1.0 0.7249999999992759 0.0
1.0 0.7374999999993088 0.0
1.0 0.7499999999993416 0.0
1.0 0.7624999999993746 0.0
1.0 0.7749999999994075 0.0
1.0 0.7874999999994404 0.0
1.0 0.7999999999994734 0.0
1.0 0.8124999999995063 0.0
1.0 0.8249999999995392 0.0
1.0 0.8374999999995721 0.0
1.0 0.8499999999996051 0.0
1.0 0.862499999999638 0.0
1.0 0.8749999999996709 0.0
1.0 0.8874999999997039 0.0
1.0 0.8999999999997368 0.0
1.0 0.9124999999997697 0.0
1.0 0.9249999999998026 0.0
1.0 0.9374999999998355 0.0
1.0 0.9499999999998684 0.0
1.0 0.9624999999999013 0.0
1.0 0.9749999999999343 0.0
1.0 0.9874999999999672 0.0
0.9874999999999439 1.0 0.0
0.9749999999998877 1.0 0.0
0.9624999999998541 1.0 0.0
0.9499999999998356 1.0 0.0
0.9374999999997805 1.0 0.0
0.9249999999996992 1.0 0.0
0.9124999999996414 1.0 0.0
0.8999999999995836 1.0 0.0
0.8874999999996454 1.0 0.0
0.8749999999997078 1.0 0.0
0.8624999999997771 1.0 0.0
0.8499999999998515 1.0 0.0
0.837499999999895 1.0 0.0
0.8249999999999216 1.0 0.0
0.8124999999999571 1.0 0.0
0.7999999999999998 1.0 0.0
0.7875000000000937 1.0 0.0
0.77500000000021 1.0 0.0
0.7625000000002968 1.0 0.0
0.7500000000003858 1.0 0.0
0.7375000000004739 1.0 0.0
0.7250000000005448 1.0 0.0
0.7125000000005861 1.0 0.0
0.7000000000006934 1.0 0.0
0.6875000000008109 1.0 0.0
0.6750000000009306 1.0 0.0
0.6625000000010091 1.0 0.0
0.6500000000010593 1.0 0.0
0.6375000000011386 1.0 0.0
0.6250000000012101 1.0 0.0
0.612500000001312 1.0 0.0
0.6000000000013869 1.0 0.0
0.5875000000014601 1.0 0.0
0.5750000000015277 1.0 0.0
0.5625000000016089 1.0 0.0
0.5500000000016854 1.0 0.0
0.5375000000017889 1.0 0.0
0.5250000000018821 1.0 0.0
0.5125000000019756 1.0 0.0
0.5000000000020587 1.0 0.0
0.4875000000020093 1.0 0.0
0.4750000000019601 1.0 0.0
0.4625000000019108 1.0 0.0
0.4500000000018616 1.0 0.0
0.4375000000018123 1.0 0.0
0.425000000001763 1.0 0.0
0.4125000000017136 1.0 0.0
0.4000000000016644 1.0 0.0
0.3875000000016123 1.0 0.0
0.3750000000015603 1.0 0.0
0.3625000000015083 1.0 0.0
0.3500000000014563 1.0 0.0
0.3375000000014042 1.0 0.0
0.3250000000013522 1.0 0.0
0.3125000000013003 1.0 0.0
0.3000000000012483 1.0 0.0
0.2875000000011962 1.0 0.0
0.2750000000011442 1.0 0.0
0.2625000000010922 1.0 0.0
0.2500000000010403 1.0 0.0
0.2375000000009883 1.0 0.0
0.2250000000009362 1.0 0.0
0.2125000000008842 1.0 0.0
0.2000000000008322 1.0 0.0
0.1875000000007802 1.0 0.0
0.1750000000007281 1.0 0.0
0.1625000000006761 1.0 0.0
0.1500000000006241 1.0 0.0
0.1375000000005721 1.0 0.0
0.12500000000052 1.0 0.0
0.112500000000468 1.0 0.0
0.100000000000416 1.0 0.0
0.08750000000036395 1.0 0.0
0.07500000000031193 1.0 0.0
0.06250000000026001 1.0 0.0
0.05000000000020799 1.0 0.0
0.03750000000015596 1.0 0.0
0.02500000000010394 1.0 0.0
0.01250000000005191 1.0 0.0
0.0 0.9874999999999439 0.0
0.0 0.9749999999998877 0.0
0.0 0.9624999999998541 0.0
0.0 0.9499999999998356 0.0
0.0 0.9374999999997805 0.0
0.0 0.9249999999996992 0.0
0.0 0.9124999999996414 0.0
0.0 0.8999999999995836 0.0
0.0 0.8874999999996454 0.0
0.0 0.8749999999997078 0.0
0.0 0.8624999999997771 0.0
0.0 0.8499999999998515 0.0
0.0 0.837499999999895 0.0
0.0 0.8249999999999216 0.0
0.0 0.8124999999999571 0.0
0.0 0.7999999999999998 0.0
0.0 0.7875000000000937 0.0
0.0 0.77500000000021 0.0
0.0 0.7625000000002968 0.0
0.0 0.7500000000003858 0.0
0.0 0.7375000000004739 0.0
0.0 0.7250000000005448 0.0
0.0 0.7125000000005861 0.0
0.0 0.7000000000006934 0.0
0.0 0.6875000000008109 0.0
0.0 0.6750000000009306 0.0
0.0 0.6625000000010091 0.0
0.0 0.6500000000010593 0.0
0.0 0.6375000000011386 0.0
0.0 0.6250000000012101 0.0
0.0 0.612500000001312 0.0
0.0 0.6000000000013869 0.0
0.0 0.5875000000014601 0.0
0.0 0.5750000000015277 0.0
0.0 0.5625000000016089 0.0
0.0 0.5500000000016854 0.0
0.0 0.5375000000017889 0.0
0.0 0.5250000000018821 0.0
0.0 0.5125000000019756 0.0
0.0 0.5000000000020587 0.0
0.0 0.4875000000020093 0.0
0.0 0.4750000000019601 0.0
0.0 0.4625000000019108 0.0
0.0 0.4500000000018616 0.0
0.0 0.4375000000018123 0.0
0.0 0.425000000001763 0.0
0.0 0.4125000000017136 0.0
0.0 0.4000000000016644 0.0
0.0 0.3875000000016123 0.0
0.0 0.3750000000015603 0.0
0.0 0.3625000000015083 0.0
0.0 0.3500000000014563 0.0
0.0 0.3375000000014042 0.0
0.0 0.3250000000013522 0.0
0.0 0.3125000000013003 0.0
0.0 0.3000000000012483 0.0
0.0 0.2875000000011962 0.0
0.0 0.2750000000011442 0.0
0.0 0.2625000000010922 0.0
0.0 0.2500000000010403 0.0
0.0 0.2375000000009883 0.0
0.0 0.2250000000009362 0.0
0.0 0.2125000000008842 0.0
0.0 0.2000000000008322 0.0
0.0 0.1875000000007802 0.0
0.0 0.1750000000007281 0.0
0.0 0.1625000000006761 0.0
0.0 0.1500000000006241 0.0
0.0 0.1375000000005721 0.0
0.0 0.12500000000052 0.0
0.0 0.112500000000468 0.0
0.0 0.100000000000416 0.0
0.0 0.08750000000036395 0.0
0.0 0.07500000000031193 0.0
0.0 0.06250000000026001 0.0
0.0 0.05000000000020799 0.0
0.0 0.03750000000015596 0.0
0.0 0.02500000000010394 0.0
0.0 0.01250000000005191 0.0
0.499547313951317 0.4984202829398231 0.0
0.7057142553715264 0.7049957919913439 0.0
0.2942617789825218 0.706558362574613 0.0
0.7052750732513358 0.29408370064617073 0.0
0.2941161372558304 0.29425664999463297 0.0
0.49473409022248005 0.7865288457870021 0.0
0.21400675843102512 0.49559804899934157 0.0
0.7879606576561358 0.5053778129282838 0.0
0.505369301426186 0.2119891966328729 0.0
0.8286074034533916 0.8287576993256224 0.0
0.17122528584787128 0.8286011816233976 0.0
0.8287577004551061 0.17139259539200086 0.0
0.17140751986106711 0.17123186221929698 0.0
0.6412438345717256 0.8516520873564006 0.0
0.14868333985619164 0.6419476520576217 0.0
0.36001439100831745 0.8471882363166383 0.0
0.8472916681795735 0.639858398754968 0.0
0.8516551147624887 0.3587551765143301 0.0
0.1529024464427883 0.36006180552290556 0.0
0.3587547979315107 0.148343271772372 0.0
0.6398585806283599 0.15270777331315408 0.0
0.5665851234669081 0.6415505082226679 0.0
0.3688065763014604 0.5781443560211958 0.0
0.6448511073779454 0.4469929790001165 0.0
0.43335085497228876 0.35323599965884955 0.0
0.42653529248703315 0.6555720715037009 0.0
0.6657620768186652 0.5502649260729648 0.0
0.3566111211511165 0.42874186251021185 0.0
0.5447859278293945 0.34262223816401394 0.0
0.4594948214297615 0.8920313032464312 0.0
[...]
POINT_DATA 7905
VECTORS vector double
0.0 0.0 0.0
0.0 0.0 0.0
0.0 0.0 0.0
0.0 0.0 0.0
0.0 0.0 0.0
0.0 0.0 0.0
0.0 0.0 0.0
0.0 0.0 0.0
0.0 0.0 0.0
0.0 0.0 0.0
0.0 0.0 0.0
0.0 0.0 0.0
0.0 0.0 0.0
0.0 0.0 0.0
0.0 0.0 0.0
0.0 0.0 0.0
0.0 0.0 0.0
0.0 0.0 0.0
0.0 0.0 0.0
0.0 0.0 0.0
0.0 0.0 0.0
0.0 0.0 0.0
0.0 0.0 0.0
0.0 0.0 0.0
0.0 0.0 0.0
0.0 0.0 0.0
0.0 0.0 0.0
0.0 0.0 0.0
0.0 0.0 0.0
0.0 0.0 0.0
0.0 0.0 0.0
0.0 0.0 0.0
0.0 0.0 0.0
0.0 0.0 0.0
0.0 0.0 0.0
0.0 0.0 0.0
0.0 0.0 0.0
0.0 0.0 0.0
0.0 0.0 0.0
0.0 0.0 0.0
0.0 0.0 0.0
0.0 0.0 0.0
0.0 0.0 0.0
0.0 0.0 0.0
0.0 0.0 0.0
0.0 0.0 0.0
0.0 0.0 0.0
0.0 0.0 0.0
0.0 0.0 0.0
0.0 0.0 0.0
0.0 0.0 0.0
0.0 0.0 0.0
0.0 0.0 0.0
0.0 0.0 0.0
0.0 0.0 0.0
0.0 0.0 0.0
0.0 0.0 0.0
0.0 0.0 0.0
0.0 0.0 0.0
0.0 0.0 0.0
0.0 0.0 0.0
0.0 0.0 0.0
0.0 0.0 0.0
0.0 0.0 0.0
0.0 0.0 0.0
0.0 0.0 0.0
0.0 0.0 0.0
0.0 0.0 0.0
0.0 0.0 0.0
0.0 0.0 0.0
0.0 0.0 0.0
0.0 0.0 0.0
0.0 0.0 0.0
0.0 0.0 0.0
0.0 0.0 0.0
0.0 0.0 0.0
0.0 0.0 0.0
0.0 0.0 0.0
0.0 0.0 0.0
0.0 0.0 0.0
0.0 0.0 0.0
0.0 0.0 0.0
0.0 0.0 0.0
0.0 0.0 0.0
0.0 0.0 0.0
0.0 0.0 0.0
0.0 0.0 0.0
0.0 0.0 0.0
0.0 0.0 0.0
0.0 0.0 0.0
0.0 0.0 0.0
0.0 0.0 0.0
0.0 0.0 0.0
0.0 0.0 0.0
0.0 0.0 0.0
0.0 0.0 0.0
0.0 0.0 0.0
0.0 0.0 0.0
0.0 0.0 0.0
0.0 0.0 0.0
0.0 0.0 0.0
0.0 0.0 0.0
0.0 0.0 0.0
0.0 0.0 0.0
0.0 0.0 0.0
0.0 0.0 0.0
0.0 0.0 0.0
0.0 0.0 0.0
0.0 0.0 0.0
0.0 0.0 0.0
0.0 0.0 0.0
0.0 0.0 0.0
0.0 0.0 0.0
0.0 0.0 0.0
0.0 0.0 0.0
0.0 0.0 0.0
0.0 0.0 0.0
0.0 0.0 0.0
0.0 0.0 0.0
0.0 0.0 0.0
0.0 0.0 0.0
0.0 0.0 0.0
0.0 0.0 0.0
0.0 0.0 0.0
0.0 0.0 0.0
0.0 0.0 0.0
0.0 0.0 0.0
0.0 0.0 0.0
0.0 0.0 0.0
0.0 0.0 0.0
0.0 0.0 0.0
0.0 0.0 0.0
0.0 0.0 0.0
0.0 0.0 0.0
0.0 0.0 0.0
0.0 0.0 0.0
0.0 0.0 0.0
0.0 0.0 0.0
0.0 0.0 0.0
0.0 0.0 0.0
0.0 0.0 0.0
0.0 0.0 0.0
0.0 0.0 0.0
0.0 0.0 0.0
0.0 0.0 0.0
0.0 0.0 0.0
0.0 0.0 0.0
0.0 0.0 0.0
0.0 0.0 0.0
0.0 0.0 0.0
0.0 0.0 0.0
0.0 0.0 0.0
0.0 0.0 0.0
0.0 0.0 0.0
0.0 0.0 0.0
0.0 0.0 0.0
0.0 0.0 0.0
0.0 0.0 0.0
0.0 0.0 0.0
0.0 0.0 0.0
0.0 0.0 0.0
0.0 0.0 0.0
1.0 0.0 0.0
1.0 0.0 0.0
1.0 0.0 0.0
1.0 0.0 0.0
1.0 0.0 0.0
1.0 0.0 0.0
1.0 0.0 0.0
1.0 0.0 0.0
1.0 0.0 0.0
1.0 0.0 0.0
1.0 0.0 0.0
1.0 0.0 0.0
1.0 0.0 0.0
1.0 0.0 0.0
1.0 0.0 0.0
1.0 0.0 0.0
1.0 0.0 0.0
1.0 0.0 0.0
1.0 0.0 0.0
1.0 0.0 0.0
1.0 0.0 0.0
1.0 0.0 0.0
1.0 0.0 0.0
1.0 0.0 0.0
1.0 0.0 0.0
1.0 0.0 0.0
1.0 0.0 0.0
1.0 0.0 0.0
1.0 0.0 0.0
1.0 0.0 0.0
1.0 0.0 0.0
1.0 0.0 0.0
1.0 0.0 0.0
1.0 0.0 0.0
1.0 0.0 0.0
1.0 0.0 0.0
1.0 0.0 0.0
1.0 0.0 0.0
1.0 0.0 0.0
1.0 0.0 0.0
1.0 0.0 0.0
1.0 0.0 0.0
1.0 0.0 0.0
1.0 0.0 0.0
1.0 0.0 0.0
1.0 0.0 0.0
1.0 0.0 0.0
1.0 0.0 0.0
1.0 0.0 0.0
1.0 0.0 0.0
1.0 0.0 0.0
1.0 0.0 0.0
1.0 0.0 0.0
1.0 0.0 0.0
1.0 0.0 0.0
1.0 0.0 0.0
1.0 0.0 0.0
1.0 0.0 0.0
1.0 0.0 0.0
1.0 0.0 0.0
1.0 0.0 0.0
1.0 0.0 0.0
1.0 0.0 0.0
1.0 0.0 0.0
1.0 0.0 0.0
1.0 0.0 0.0
1.0 0.0 0.0
1.0 0.0 0.0
1.0 0.0 0.0
1.0 0.0 0.0
1.0 0.0 0.0
1.0 0.0 0.0
1.0 0.0 0.0
1.0 0.0 0.0
1.0 0.0 0.0
1.0 0.0 0.0
1.0 0.0 0.0
1.0 0.0 0.0
1.0 0.0 0.0
0.0 0.0 0.0
0.0 0.0 0.0
0.0 0.0 0.0
0.0 0.0 0.0
0.0 0.0 0.0
0.0 0.0 0.0
0.0 0.0 0.0
0.0 0.0 0.0
0.0 0.0 0.0
0.0 0.0 0.0
0.0 0.0 0.0
0.0 0.0 0.0
0.0 0.0 0.0
0.0 0.0 0.0
0.0 0.0 0.0
0.0 0.0 0.0
0.0 0.0 0.0
0.0 0.0 0.0
0.0 0.0 0.0
0.0 0.0 0.0
0.0 0.0 0.0
0.0 0.0 0.0
0.0 0.0 0.0
0.0 0.0 0.0
0.0 0.0 0.0
0.0 0.0 0.0
0.0 0.0 0.0
0.0 0.0 0.0
0.0 0.0 0.0
0.0 0.0 0.0
0.0 0.0 0.0
0.0 0.0 0.0
0.0 0.0 0.0
0.0 0.0 0.0
0.0 0.0 0.0
0.0 0.0 0.0
0.0 0.0 0.0
0.0 0.0 0.0
0.0 0.0 0.0
0.0 0.0 0.0
0.0 0.0 0.0
0.0 0.0 0.0
0.0 0.0 0.0
0.0 0.0 0.0
0.0 0.0 0.0
0.0 0.0 0.0
0.0 0.0 0.0
0.0 0.0 0.0
0.0 0.0 0.0
0.0 0.0 0.0
0.0 0.0 0.0
0.0 0.0 0.0
0.0 0.0 0.0
0.0 0.0 0.0
0.0 0.0 0.0
0.0 0.0 0.0
0.0 0.0 0.0
0.0 0.0 0.0
0.0 0.0 0.0
0.0 0.0 0.0
0.0 0.0 0.0
0.0 0.0 0.0
0.0 0.0 0.0
0.0 0.0 0.0
0.0 0.0 0.0
0.0 0.0 0.0
0.0 0.0 0.0
0.0 0.0 0.0
0.0 0.0 0.0
0.0 0.0 0.0
0.0 0.0 0.0
0.0 0.0 0.0
0.0 0.0 0.0
0.0 0.0 0.0
0.0 0.0 0.0
0.0 0.0 0.0
0.0 0.0 0.0
0.0 0.0 0.0
0.0 0.0 0.0
-0.102517134063 0.0159799773126 0.0
-0.191528803139 -0.0775239821509 0.0
-0.117095823158 0.125830536044 0.0
-0.0460162180604 -0.0295042121806 0.0
-0.0406163917689 0.0285327924511 0.0
-0.0831588940057 0.0597805746471 0.0
-0.0502769917855 0.0800560631357 0.0
-0.0869045821259 -0.103801171917 0.0
-0.050512855654 0.000949030918701 0.0
-0.0718944973791 -0.247906994181 0.0
-0.0960004458574 0.207519579363 0.0
-0.0158114171594 -0.014636067525 0.0
-0.0149840875012 0.0133903794903 0.0
0.0990799100249 0.0106041659055 0.0
-0.0518793714445 0.13470601694 0.0
0.000760663357579 0.0843789131992 0.0
-0.13289830952 -0.212492196677 0.0
-0.0246725494733 -0.0505060343993 0.0
-0.021339887785 0.0449019676162 0.0
-0.0344146051988 0.00730845316242 0.0
-0.0369913709452 -0.00712119177101 0.0
-0.156523831404 0.0134463093333 0.0
-0.10967485811 0.0713520572333 0.0
-0.0975826275926 -0.0377965239217 0.0
-0.0693274980019 0.0177778079502 0.0
-0.131555097293 0.069940691233 0.0
-0.131085338044 -0.0559841549369 0.0
-0.0728965979917 0.0427899728307 0.0
-0.0725223499903 -0.00482210519867 0.0
0.241881168966 0.0357844255823 0.0
-0.0152933954328 0.0609951393707 0.0
-0.0378159786776 -0.114609003695 0.0
-0.0339126889301 -0.000785997868774 0.0
0.333203840565 -0.0328188486503 0.0
-0.0445443114828 0.171092019324 0.0
-0.00812094637798 -0.0226490121676 0.0
-0.018452784658 0.00481871681817 0.0
-0.123238538119 -0.335080681508 0.0
0.120365436199 0.0913551177257 0.0
-0.020171789722 -0.00533861788941 0.0
-0.00798185210162 0.0215256515937 0.0
-0.121896743955 0.0182342622946 0.0
-0.0814964868168 0.109795137709 0.0
-0.057055174779 -0.0563832174615 0.0
-0.0489500521634 0.0140655909545 0.0
-0.117387511996 0.0921909551346 0.0
-0.163924415578 -0.122968005873 0.0
-0.0452652838007 0.0504893521841 0.0
-0.0526887367036 -0.0116042728548 0.0
0.0310806186002 -0.348692158455 0.0
-0.0800392850398 0.256429053587 0.0
-0.00352975891081 -0.00336487200953 0.0
-0.00339427901022 0.00315382234619 0.0
0.402916923463 0.0141075911816 0.0
-0.0153645547856 0.0808224830541 0.0
-0.0124431432505 -0.0535502436738 0.0
-0.0267367475747 0.00150776328485 0.0
-0.205290499199 -0.208195962309 0.0
-0.104347276724 0.140555332539 0.0
-0.0349609594445 -0.0177032745099 0.0
-0.0267904674097 0.030337082909 0.0
-0.0856287329499 -0.0667276911059 0.0
-0.096617855974 0.165525989053 0.0
-0.0292115335459 -0.0331634755836 0.0
-0.0317604466359 0.0164766902883 0.0
-0.134775654423 0.0366380699843 0.0
-0.135252004442 -0.0112980855211 0.0
-0.0982512863412 0.04347835136 0.0
-0.0947984146922 -0.00849174153214 0.0
-0.184165939226 -0.0371757308248 0.0
-0.117817440456 0.0950161361544 0.0
-0.0695075250116 -0.0260105436672 0.0
-0.0538954212288 0.031538607817 0.0
0.476059320635 0.00195649963733 0.0
-0.0151020997194 0.0978639596433 0.0
-0.00547158602538 -0.0291877145369 0.0
-0.0185920473834 0.00182630517038 0.0
-0.0411134563876 -0.166568371249 0.0
-0.0214329276693 -0.00196574940731 0.0
0.344386848447 0.0325807616597 0.0
-0.00583187229144 0.0298746078089 0.0
0.318861525026 -0.0939352491395 0.0
-0.0576262564557 0.222765593606 0.0
-0.00393025819511 -0.00905758267129 0.0
-0.00827027288104 0.00318449556116 0.0
-0.113006411317 -0.45076473692 0.0
-0.00884783838701 -0.00352578008222 0.0
0.0952114037903 0.125933094891 0.0
-0.00385242496372 0.00865762366086 0.0
-0.151348311881 0.0518401471508 0.0
-0.0766211960275 0.0693010182325 0.0
-0.0980872748734 -0.0736614321136 0.0
-0.0566031436736 0.00310946295356 0.0
0.0177580336569 0.0377735704887 0.0
-0.0416669900238 0.101067445293 0.0
-0.0401951260169 -0.0809140995929 0.0
-0.0394162450412 0.00412394371507 0.0
-0.0574085813182 0.0723797695197 0.0
-0.0211410648871 0.0620509043031 0.0
-0.0563803128827 -0.148101778249 0.0
-0.0266180237122 -0.00442126471418 0.0
-0.0884478111185 0.0185114335742 0.0
-0.0814200027294 0.00519907073926 0.0
-0.0821042517679 -0.00714859717328 0.0
-0.0922388128313 0.00478704744787 0.0
-0.000962801840631 -0.00154916181589 0.0
-0.000509304815958 -0.000166469718835 0.0
-0.00188855737069 0.000690143619861 0.0
-0.00048949532873 0.000181550689477 0.0
0.360568957917 -0.142054117271 0.0
0.0607888587203 -0.367222142291 0.0
-0.0670661406788 0.269108596243 0.0
-0.0596111156803 0.281493861622 0.0
-0.0019995382743 -0.000734588755322 0.0
-0.000942412003112 0.00151999344294 0.0
-0.067595899523 -0.492902490849 0.0
0.119478288222 0.149612024822 0.0
-0.0726841133731 0.00675261258493 0.0
-0.0784123643661 0.0183555527556 0.0
-0.146573574771 0.0622129499602 0.0
-0.137794528122 0.070935726516 0.0
-0.138837800199 0.0799474866237 0.0
-0.12722592688 -0.0673594937291 0.0
-0.131402325868 -0.092601222588 0.0
-0.157404172114 -0.0799067822058 0.0
-0.0737956871606 0.0553834725417 0.0
-0.0613902599936 0.0616566866195 0.0
-0.0615489360256 0.0491139179567 0.0
-0.0659620808431 -0.00064203669836 0.0
-0.0592593307065 -0.00387137295916 0.0
-0.0634446774312 -0.00988264678574 0.0
-0.103966043813 0.0566685420083 0.0
-0.115219934252 0.0410185958614 0.0
-0.12206876886 0.0550758961444 0.0
-0.139117532655 0.0556489469568 0.0
-0.127032742877 0.0697730867662 0.0
-0.116443232051 -0.0270589343337 0.0
-0.111915232952 -0.0104900547572 0.0
-0.0964454952561 -0.0222895984148 0.0
-0.120418441741 -0.0458326070239 0.0
-0.141747310122 -0.0349735174477 0.0
-0.13041691386 0.0581531648175 0.0
-0.11234510893 0.0733502803991 0.0
-0.0639840214042 0.0768237183805 0.0
-0.0501579623518 0.066097916697 0.0
-0.0999481457509 -0.0885853657653 0.0
-0.120974120277 -0.115002161497 0.0
-0.0561217919667 0.00204638499615 0.0
-0.053280928673 -0.00368548776229 0.0
-0.0701951393973 0.128507652602 0.0
-0.0913866420971 0.138545789109 0.0
-0.0739754386894 0.153455228849 0.0
-0.0462847399899 0.0155485328502 0.0
-0.113675409759 -0.0163760686435 0.0
0.00349269283858 -0.0144560620463 0.0
-0.041696270424 0.0107698181894 0.0
-0.040786656086 0.0163858423377 0.0
-0.0340420717191 0.0114974867312 0.0
-0.0400399470722 -0.0562959091409 0.0
-0.0409311546246 -0.0442587027629 0.0
-0.0274574473939 -0.042262923876 0.0
-0.110174140358 0.144103467468 0.0
-0.106908071611 0.12258392878 0.0
-0.168887049127 -0.0720233311379 0.0
-0.175735859025 -0.0283913091011 0.0
-0.0377627938167 0.0226162273159 0.0
-0.0466036765803 0.0221677255896 0.0
-0.0402595840368 -0.0329511624712 0.0
-0.0524944513183 -0.0395032542219 0.0
-0.183065192837 -0.230300423883 0.0
-0.199077772707 -0.165962868933 0.0
-0.162887433923 -0.178245680992 0.0
-0.0672914594975 0.112642100517 0.0
-0.112600291174 0.115527454008 0.0
-0.0838337893801 0.0961892713717 0.0
-0.0368069472157 -0.0117855988414 0.0
-0.0443874800763 -0.0162238358724 0.0
-0.0442895101838 -0.0101675343238 0.0
-0.0242892622772 0.0379309847326 0.0
-0.0348767230463 0.0396900944926 0.0
-0.0323836217519 0.0483214876244 0.0
-0.0819277539299 0.0318743733031 0.0
-0.0722333634313 0.029741404857 0.0
0.584740571247 0.0101937618878 0.0
0.595860086507 0.00838860927176 0.0
-0.00360333685942 0.0313250657707 0.0
-0.00447205649719 0.0400143269631 0.0
-0.0118938044848 -0.0760600597903 0.0
-0.00835639333389 -0.0572435570384 0.0
-0.0191397312563 -0.000412687530596 0.0
-0.019976740297 2.16201059641e-06 0.0
-0.0131320467817 -0.0902840083696 0.0
-0.0431039005635 -0.141901830652 0.0
-0.0155403335343 -0.000518074064712 0.0
-0.0274506939221 -0.00182205460969 0.0
0.623975639705 0.00902697646607 0.0
0.306099856086 0.0337016862835 0.0
-0.00225075089028 0.0212742451121 0.0
-0.00925907346082 0.041468854541 0.0
-0.101538863511 -0.055606036756 0.0
-0.065076391691 0.00894791966403 0.0
-0.202288373853 -0.107833381422 0.0
-0.206181723802 -0.131774675814 0.0
-0.126499999964 0.112569116883 0.0
-0.119583527471 0.134917329345 0.0
-0.0515716685754 -0.0212615723157 0.0
-0.042004628319 -0.0237781722234 0.0
-0.0440578204475 0.0371644867553 0.0
-0.0357117326444 0.030412433521 0.0
-0.131708502879 0.0826621417007 0.0
-0.1167407811 0.084955954318 0.0
-0.0639670035036 0.0374082387523 0.0
-0.0636159171954 0.0259145554654 0.0
-0.0931921492914 0.0314501843372 0.0
-0.0844925690524 0.0445507114363 0.0
-0.122912433586 0.0238474757875 0.0
-0.106846839932 0.0294872707204 0.0
-0.105690130206 0.00372871831357 0.0
-0.12225086514 0.00514063853162 0.0
-0.0811351441008 -0.168146393761 0.0
-0.0869903068369 -0.206922324187 0.0
-0.0360677733368 -0.00354897458558 0.0
-0.0298986247559 -0.00412063979549 0.0
0.0960788153752 0.0583408226541 0.0
0.151323768165 0.0597937908038 0.0
-0.0186455827748 0.0521469797227 0.0
-0.0124810825276 0.039065348546 0.0
0.670006086122 -0.00695561094497 0.0
0.639277000891 -0.0171641051408 0.0
-0.011252473757 0.0987489280043 0.0
-0.0166292856333 0.126884454259 0.0
-0.00205221676716 -0.0133301560352 0.0
-0.00187883046773 -0.00979179950387 0.0
-0.0111625014769 0.000969133974652 0.0
-0.00893596431034 0.00113613441956 0.0
-0.0472856142091 -0.272355478265 0.0
-0.0341476965498 -0.19597202683 0.0
-0.00987234050991 -0.00128440805103 0.0
-0.0125314054438 -0.00108068596685 0.0
0.447127939005 0.036107459512 0.0
0.512328221356 0.0235187977569 0.0
-0.00191841386098 0.00974578052197 0.0
-0.00209668564272 0.0134702367824 0.0
0.331280978686 0.0217790097252 0.0
0.65445975905 0.00539303432423 0.0
-0.015283525092 0.0710747698327 0.0
-0.00434625325082 0.0446895323783 0.0
-0.0205031979293 -0.0754271185865 0.0
-0.00463978441116 -0.0385286494671 0.0
-0.0301767567263 0.000788116465474 0.0
-0.0178076800941 0.000258251769306 0.0
-0.140735167033 -0.270219793142 0.0
-0.186556530387 -0.294206190487 0.0
0.0412353327974 0.0919354590838 0.0
-0.0509084356863 0.132500713641 0.0
-0.0294461318398 -0.00718101554556 0.0
-0.0280494802586 -0.0115214104288 0.0
-0.0145262453195 0.0333746104666 0.0
-0.0173670721775 0.0277162927035 0.0
-0.0303317820953 0.0481182216584 0.0
0.107453888526 0.0394551670452 0.0
0.0127772624663 0.0540427006037 0.0
-0.0474272225287 0.0919465893879 0.0
-0.0299079222377 0.0844123626999 0.0
-0.0343053600392 0.0768112409896 0.0
-0.0615256554315 -0.0926238297982 0.0
-0.0429975663702 -0.0952769132579 0.0
-0.0683345269326 -0.116213166433 0.0
-0.0463606838893 0.00323874104589 0.0
-0.0394280332895 0.0014201273093 0.0
-0.0438242114054 -0.000175171287802 0.0
-0.175632252173 -0.0068630702629 0.0
-0.18262760653 -0.0119529722039 0.0
-0.170685425573 0.0157757944401 0.0
-0.109138321048 0.102369876465 0.0
-0.0988030870155 0.0886307190008 0.0
-0.0812024443708 -0.0321505046849 0.0
-0.0669519363218 -0.0392759372221 0.0
-0.0809311338669 -0.0480592263042 0.0
-0.0551472699537 0.0229712164221 0.0
-0.0603212917375 0.0164930495632 0.0
0.0992794055986 -0.107936924431 0.0
0.065913364829 -0.0548978241416 0.0
-0.0720267911928 -0.139557946538 0.0
-0.0818079624533 0.208196808239 0.0
-0.0766624241846 0.180852766958 0.0
-0.100929942367 0.189731672915 0.0
-0.0129366029193 -0.0203033642358 0.0
-0.0183526865097 -0.0299878392721 0.0
-0.0217891068595 -0.0234512434638 0.0
-0.0184058270314 0.00917797218747 0.0
-0.025724471256 0.0105322298489 0.0
-0.0233835971659 0.0155707724707 0.0
-0.196990939203 -0.0552296727354 0.0
-0.12197824697 0.109581671027 0.0
-0.0583647604288 -0.0292001421089 0.0
-0.0503550815808 0.0304205994684 0.0
-0.157048437547 0.0011432484497 0.0
-0.162327820782 -0.0230366306954 0.0
-0.166311575864 -0.051168930583 0.0
-0.082002199163 -0.0189814732633 0.0
-0.0710738627566 -0.0151831328323 0.0
0.700355802169 0.00361971688212 0.0
-0.00430179290041 0.0492365638354 0.0
-0.00277623260947 -0.0265619451721 0.0
-0.0151819712917 0.000336192964646 0.0
-0.0606999370992 0.0682477151494 0.0
-0.0882615584443 0.0819027736306 0.0
-0.0987989436934 -0.129271992641 0.0
-0.132763622149 -0.145804465814 0.0
-0.0392282822788 0.069039439198 0.0
-0.0387126911942 0.0585761471132 0.0
-0.0474230258711 -0.00261417407811 0.0
-0.0481550056954 -0.00664293644704 0.0
0.337543001264 -0.0665978911172 0.0
0.62714079804 -0.0288321014716 0.0
-0.0523661663772 0.20035003801 0.0
-0.0210037026846 0.150900905392 0.0
-0.00584286806128 -0.0143722214994 0.0
-0.00135899590528 -0.00587380634366 0.0
-0.0126675377736 0.00419051943976 0.0
-0.00588062526433 0.000908194007672 0.0
-0.0509790587449 -0.334085758761 0.0
-0.125265401386 -0.406498460302 0.0
-0.00642010320001 -0.00101785168066 0.0
-0.013680248652 -0.00467608090814 0.0
0.419251046315 0.0459446983118 0.0
0.105057613671 0.111869883101 0.0
-0.00137653115801 0.0058233730502 0.0
-0.00576922152087 0.0136944135861 0.0
-0.0512439145426 0.154662521065 0.0
0.186431081194 -0.0114054977109 0.0
-0.0271431452487 0.00684805972532 0.0
-0.0157232083392 -0.0361681659138 0.0
-0.172148613255 -0.240880206456 0.0
-0.167790004154 -0.350917832588 0.0
-0.0996410973383 0.170748838294 0.0
-0.0464268795019 0.157563701262 0.0
-0.0253925559795 -0.0171681163068 0.0
-0.0198436520517 -0.0101975362545 0.0
-0.0205425464384 0.0215851603881 0.0
-0.0124927795542 0.0189029909387 0.0
-0.00113661901846 -0.00332292650699 0.0
0.549532018666 -0.0564130134327 0.0
-0.00363615167774 0.00079977835974 0.0
-0.0344392042384 0.19721007874 0.0
-0.0623515069351 -0.421211761544 0.0
-0.00391546472945 -0.000879179492896 0.0
0.315034198968 0.0746617783934 0.0
-0.00113136414331 0.00327585812405 0.0
0.178242920922 0.027722261357 0.0
-0.029739220792 0.0962740605586 0.0
-0.0277012405911 -0.0726944971861 0.0
-0.0356791278658 0.00281086075029 0.0
-0.00428442577804 -0.00655722586643 0.0
-0.00631346530134 0.00365021818206 0.0
0.20146010352 -0.183063817052 0.0
-0.0809494383758 0.256601095879 0.0
-0.0931631848156 -0.452935206496 0.0
-0.00668163105716 -0.00398630184781 0.0
-0.00926833918178 0.186309261602 0.0
-0.00417618521967 0.00620213410579 0.0
-0.169553850482 -0.143412987999 0.0
-0.111732963964 0.161652528739 0.0
-0.0318960304896 -0.02484116713 0.0
-0.0291228650945 0.0228084030485 0.0
-0.150783462256 0.0386465235106 0.0
-0.162299261572 0.0321379407797 0.0
-0.0806701530923 0.0862749538889 0.0
-0.0927051670557 0.0722566129622 0.0
-0.0856269587774 -0.0665198221132 0.0
-0.0578066265778 0.00891055152869 0.0
0.0234411368916 0.0608922785696 0.0
-0.0274120642767 0.0640110743342 0.0
-0.0277563842887 0.0769858089249 0.0
-0.0281055247122 0.0552256154069 0.0
-0.0821832327683 -0.143517504554 0.0
-0.0415312961353 -0.00268579847458 0.0
-0.11741751563 -0.171371357438 0.0
-0.0421060416333 -0.00580832801257 0.0
0.723102246493 -0.00157437542239 0.0
0.431291494597 -0.00575411276478 0.0
-0.00617582576515 0.0694542771999 0.0
-0.0257952100693 0.128393535446 0.0
0.256597017804 0.0522919206798 0.0
0.296130182854 0.0055993808699 0.0
-0.0318368709522 0.12437950308 0.0
-0.0758024895255 -0.236967705756 0.0
-0.00691101909209 0.0264257655029 0.0
-0.0220288890705 -0.00324402736562 0.0
0.604881527658 0.012254010076 0.0
-0.0187397542318 -0.124366916487 0.0
-0.00186651326328 0.0160048268301 0.0
-0.0134517425798 -0.000642406227899 0.0
-0.00174649338615 -0.015116462239 0.0
-0.00701405158767 -0.0271489437573 0.0
-0.0115672060419 0.000568651749813 0.0
-0.0198430809277 0.00300278121017 0.0
-0.0130679134866 -0.0408893852693 0.0
-0.0269103792603 0.00409507540736 0.0
-0.109046922981 0.045598914325 0.0
-0.0654451714356 0.0935037338824 0.0
-0.0735422349178 -0.0793588523125 0.0
-0.051927333907 0.00633497464802 0.0
-0.151615706921 0.0436914140514 0.0
-0.15403362075 0.0237055567352 0.0
-0.088123994085 0.0573833789154 0.0
0.122952272279 -0.162932412721 0.0
-0.0849271495347 0.233053891044 0.0
-0.129097523535 -0.394870042241 0.0
-0.0087559035639 -0.0128748353534 0.0
-0.0432033926522 0.181225806707 0.0
-0.0120780701293 0.00703951411962 0.0
-0.0128384255563 -0.00775598070799 0.0
-0.00847468842138 0.0120110237308 0.0
0.0544635742365 0.0272764898583 0.0
-0.0568845811203 0.0357830597453 0.0
-0.0485801469267 0.116112142176 0.0
-0.0614108131521 0.108500260754 0.0
-0.0525370589311 -0.0723015848568 0.0
-0.0343403973897 -0.0657402755352 0.0
-0.0394236824332 0.00611493944164 0.0
-0.0461716249178 0.00757121985405 0.0
-0.131972518041 0.095882610282 0.0
-0.185651867285 -0.0777975075627 0.0
-0.0540617341888 0.0401186631362 0.0
-0.0608406644489 -0.0188121567466 0.0
-0.0175140244569 -0.305600839233 0.0
-0.0880153581781 0.232927917182 0.0
-0.00878484456336 -0.00842263068476 0.0
-0.00840085849264 0.00777455819743 0.0
-0.139165811885 0.0130914862641 0.0
0.45879464774 0.00785969181259 0.0
0.733423118978 0.00143602331708 0.0
-0.0157323374197 0.0905955546466 0.0