# vtk DataFile Version 2.0
2D Simulation Python
ASCII
DATASET UNSTRUCTURED_GRID
FIELD FieldData 1
NODES 1 2 int
7905 15488

POINTS 7905 double
0.0 0.0 0.0
1.0 0.0 0.0
1.0 1.0 0.0
0.0 1.0 0.0
0.01249999999997639 0.0 0.0
0.02499999999995297 0.0 0.0
0.03749999999992721 0.0 0.0
0.04999999999989927 0.0 0.0
0.0624999999998716 0.0 0.0
0.07499999999985263 0.0 0.0
0.08749999999983366 0.0 0.0
0.09999999999981467 0.0 0.0
0.1124999999997956 0.0 0.0
0.1249999999997765 0.0 0.0
0.1374999999997401 0.0 0.0
0.1499999999997036 0.0 0.0
0.1624999999996672 0.0 0.0
0.1749999999996308 0.0 0.0
0.1874999999995943 0.0 0.0
0.1999999999995579 0.0 0.0
0.2124999999995214 0.0 0.0
0.224999999999485 0.0 0.0
0.2374999999994485 0.0 0.0
0.2499999999994121 0.0 0.0
0.2624999999993757 0.0 0.0
0.2749999999993393 0.0 0.0
0.2874999999993028 0.0 0.0
0.2999999999992664 0.0 0.0
0.3124999999992299 0.0 0.0
0.3249999999991935 0.0 0.0
0.3374999999991571 0.0 0.0
0.3499999999991207 0.0 0.0
0.3624999999990842 0.0 0.0
0.3749999999990478 0.0 0.0
0.3874999999990113 0.0 0.0
0.3999999999989749 0.0 0.0
0.4124999999989398 0.0 0.0
0.4249999999989048 0.0 0.0
0.4374999999988697 0.0 0.0
0.4499999999988346 0.0 0.0
0.4624999999987995 0.0 0.0
0.4749999999987644 0.0 0.0
0.4874999999987293 0.0 0.0
0.4999999999986943 0.0 0.0
0.5124999999987259 0.0 0.0
0.5249999999987575 0.0 0.0
0.5374999999987891 0.0 0.0
0.5499999999988205 0.0 0.0
0.5624999999988521 0.0 0.0
0.5749999999988837 0.0 0.0
0.5874999999989152 0.0 0.0
0.5999999999989468 0.0 0.0
0.6124999999989797 0.0 0.0
0.6249999999990127 0.0 0.0
0.6374999999990456 0.0 0.0
0.6499999999990784 0.0 0.0
0.6624999999991114 0.0 0.0
0.6749999999991443 0.0 0.0
0.6874999999991771 0.0 0.0
0.69999999999921 0.0 0.0
0.712499999999243 0.0 0.0
0.7249999999992759 0.0 0.0
0.7374999999993088 0.0 0.0
0.7499999999993416 0.0 0.0
0.7624999999993746 0.0 0.0
0.7749999999994075 0.0 0.0
0.7874999999994404 0.0 0.0
0.7999999999994734 0.0 0.0
0.8124999999995063 0.0 0.0
0.8249999999995392 0.0 0.0
0.8374999999995721 0.0 0.0
0.8499999999996051 0.0 0.0
0.862499999999638 0.0 0.0
0.8749999999996709 0.0 0.0
0.8874999999997039 0.0 0.0
0.8999999999997368 0.0 0.0
0.9124999999997697 0.0 0.0
0.9249999999998026 0.0 0.0
0.9374999999998355 0.0 0.0
0.9499999999998684 0.0 0.0
0.9624999999999013 0.0 0.0
0.9749999999999343 0.0 0.0
0.9874999999999672 0.0 0.0
1.0 0.01249999999997639 0.0
1.0 0.02499999999995297 0.0
1.0 0.03749999999992721 0.0
1.0 0.04999999999989927 0.0
1.0 0.0624999999998716 0.0
1.0 0.07499999999985263 0.0
1.0 0.08749999999983366 0.0
1.0 0.09999999999981467 0.0
1.0 0.1124999999997956 0.0
1.0 0.1249999999997765 0.0
1.0 0.1374999999997401 0.0
1.0 0.1499999999997036 0.0
1.0 0.1624999999996672 0.0
1.0 0.1749999999996308 0.0
1.0 0.1874999999995943 0.0
1.0 0.1999999999995579 0.0
1.0 0.2124999999995214 0.0
1.0 0.224999999999485 0.0
1.0 0.2374999999994485 0.0
1.0 0.2499999999994121 0.0
1.0 0.2624999999993757 0.0
1.0 0.2749999999993393 0.0
1.0 0.2874999999993028 0.0
1.0 0.2999999999992664 0.0
1.0 0.3124999999992299 0.0
1.0 0.3249999999991935 0.0
1.0 0.3374999999991571 0.0
1.0 0.3499999999991207 0.0
1.0 0.3624999999990842 0.0
1.0 0.3749999999990478 0.0
1.0 0.3874999999990113 0.0
1.0 0.3999999999989749 0.0
1.0 0.4124999999989398 0.0
1.0 0.4249999999989048 0.0
1.0 0.4374999999988697 0.0
1.0 0.4499999999988346 0.0
1.0 0.4624999999987995 0.0
1.0 0.4749999999987644 0.0
1.0 0.4874999999987293 0.0
1.0 0.4999999999986943 0.0
1.0 0.5124999999987259 0.0
1.0 0.5249999999987575 0.0
1.0 0.5374999999987891 0.0
1.0 0.5499999999988205 0.0
1.0 0.5624999999988521 0.0
1.0 0.5749999999988837 0.0
1.0 0.5874999999989152 0.0
1.0 0.5999999999989468 0.0
1.0 0.6124999999989797 0.0
1.0 0.6249999999990127 0.0
1.0 0.6374999999990456 0.0
1.0 0.6499999999990784 0.0
1.0 0.6624999999991114 0.0
1.0 0.6749999999991443 0.0
1.0 0.6874999999991771 0.0
1.0 0.69999999999921 0.0
1.0 0.712499999999243 0.0
1.0 0.7249999999992759 0.0
1.0 0.7374999999993088 0.0
1.0 0.7499999999993416 0.0
1.0 0.7624999999993746 0.0
1.0 0.7749999999994075 0.0
1.0 0.7874999999994404 0.0
1.0 0.7999999999994734 0.0
1.0 0.8124999999995063 0.0
1.0 0.8249999999995392 0.0
1.0 0.8374999999995721 0.0
1.0 0.8499999999996051 0.0
1.0 0.862499999999638 0.0
1.0 0.8749999999996709 0.0
1.0 0.8874999999997039 0.0
1.0 0.8999999999997368 0.0
1.0 0.9124999999997697 0.0
1.0 0.9249999999998026 0.0
1.0 0.9374999999998355 0.0
1.0 0.9499999999998684 0.0
1.0 0.9624999999999013 0.0
1.0 0.9749999999999343 0.0
1.0 0.9874999999999672 0.0
0.9874999999999439 1.0 0.0
0.9749999999998877 1.0 0.0
0.9624999999998541 1.0 0.0
0.9499999999998356 1.0 0.0
0.9374999999997805 1.0 0.0
0.9249999999996992 1.0 0.0
0.9124999999996414 1.0 0.0
0.8999999999995836 1.0 0.0
0.8874999999996454 1.0 0.0
0.8749999999997078 1.0 0.0
0.8624999999997771 1.0 0.0
0.8499999999998515 1.0 0.0
0.837499999999895 1.0 0.0
0.8249999999999216 1.0 0.0
0.8124999999999571 1.0 0.0
0.7999999999999998 1.0 0.0
0.7875000000000937 1.0 0.0
0.77500000000021 1.0 0.0
0.7625000000002968 1.0 0.0
0.7500000000003858 1.0 0.0
0.7375000000004739 1.0 0.0
0.7250000000005448 1.0 0.0
0.7125000000005861 1.0 0.0
0.7000000000006934 1.0 0.0
0.6875000000008109 1.0 0.0
0.6750000000009306 1.0 0.0
0.6625000000010091 1.0 0.0
0.6500000000010593 1.0 0.0
0.6375000000011386 1.0 0.0
0.6250000000012101 1.0 0.0
0.612500000001312 1.0 0.0
0.6000000000013869 1.0 0.0
0.5875000000014601 1.0 0.0
0.5750000000015277 1.0 0.0
0.5625000000016089 1.0 0.0
0.5500000000016854 1.0 0.0
0.5375000000017889 1.0 0.0
0.5250000000018821 1.0 0.0
0.5125000000019756 1.0 0.0
0.5000000000020587 1.0 0.0
0.4875000000020093 1.0 0.0
0.4750000000019601 1.0 0.0
0.4625000000019108 1.0 0.0
0.4500000000018616 1.0 0.0
0.4375000000018123 1.0 0.0
0.425000000001763 1.0 0.0
0.4125000000017136 1.0 0.0
0.4000000000016644 1.0 0.0
0.3875000000016123 1.0 0.0
0.3750000000015603 1.0 0.0
0.3625000000015083 1.0 0.0
0.3500000000014563 1.0 0.0
0.3375000000014042 1.0 0.0
0.3250000000013522 1.0 0.0
0.3125000000013003 1.0 0.0
0.3000000000012483 1.0 0.0
0.2875000000011962 1.0 0.0
0.2750000000011442 1.0 0.0
0.2625000000010922 1.0 0.0
0.2500000000010403 1.0 0.0
0.2375000000009883 1.0 0.0
0.2250000000009362 1.0 0.0
0.2125000000008842 1.0 0.0
0.2000000000008322 1.0 0.0
0.1875000000007802 1.0 0.0
0.1750000000007281 1.0 0.0
0.1625000000006761 1.0 0.0
0.1500000000006241 1.0 0.0
0.1375000000005721 1.0 0.0
0.12500000000052 1.0 0.0
0.112500000000468 1.0 0.0
0.100000000000416 1.0 0.0
0.08750000000036395 1.0 0.0
0.07500000000031193 1.0 0.0
0.06250000000026001 1.0 0.0
0.05000000000020799 1.0 0.0
0.03750000000015596 1.0 0.0
0.02500000000010394 1.0 0.0
0.01250000000005191 1.0 0.0
0.0 0.9874999999999439 0.0
0.0 0.9749999999998877 0.0
0.0 0.9624999999998541 0.0
0.0 0.9499999999998356 0.0
0.0 0.9374999999997805 0.0
0.0 0.9249999999996992 0.0
0.0 0.9124999999996414 0.0
0.0 0.8999999999995836 0.0
0.0 0.8874999999996454 0.0
0.0 0.8749999999997078 0.0
0.0 0.8624999999997771 0.0
0.0 0.8499999999998515 0.0
0.0 0.837499999999895 0.0
0.0 0.8249999999999216 0.0
0.0 0.8124999999999571 0.0
0.0 0.7999999999999998 0.0
0.0 0.7875000000000937 0.0
0.0 0.77500000000021 0.0
0.0 0.7625000000002968 0.0
0.0 0.7500000000003858 0.0
0.0 0.7375000000004739 0.0
0.0 0.7250000000005448 0.0
0.0 0.7125000000005861 0.0
0.0 0.7000000000006934 0.0
0.0 0.6875000000008109 0.0
0.0 0.6750000000009306 0.0
0.0 0.6625000000010091 0.0
0.0 0.6500000000010593 0.0
0.0 0.6375000000011386 0.0
0.0 0.6250000000012101 0.0
0.0 0.612500000001312 0.0
0.0 0.6000000000013869 0.0
0.0 0.5875000000014601 0.0
0.0 0.5750000000015277 0.0
0.0 0.5625000000016089 0.0
0.0 0.5500000000016854 0.0
0.0 0.5375000000017889 0.0
0.0 0.5250000000018821 0.0
0.0 0.5125000000019756 0.0
0.0 0.5000000000020587 0.0
0.0 0.4875000000020093 0.0
0.0 0.4750000000019601 0.0
0.0 0.4625000000019108 0.0
0.0 0.4500000000018616 0.0
0.0 0.4375000000018123 0.0
0.0 0.425000000001763 0.0
0.0 0.4125000000017136 0.0
0.0 0.4000000000016644 0.0
0.0 0.3875000000016123 0.0
0.0 0.3750000000015603 0.0
0.0 0.3625000000015083 0.0
0.0 0.3500000000014563 0.0
0.0 0.3375000000014042 0.0
0.0 0.3250000000013522 0.0
0.0 0.3125000000013003 0.0
0.0 0.3000000000012483 0.0
0.0 0.2875000000011962 0.0
0.0 0.2750000000011442 0.0
0.0 0.2625000000010922 0.0
0.0 0.2500000000010403 0.0
0.0 0.2375000000009883 0.0
0.0 0.2250000000009362 0.0
0.0 0.2125000000008842 0.0
0.0 0.2000000000008322 0.0
0.0 0.1875000000007802 0.0
0.0 0.1750000000007281 0.0
0.0 0.1625000000006761 0.0
0.0 0.1500000000006241 0.0
0.0 0.1375000000005721 0.0
0.0 0.12500000000052 0.0
0.0 0.112500000000468 0.0
0.0 0.100000000000416 0.0
0.0 0.08750000000036395 0.0
0.0 0.07500000000031193 0.0
0.0 0.06250000000026001 0.0
0.0 0.05000000000020799 0.0
0.0 0.03750000000015596 0.0
0.0 0.02500000000010394 0.0
0.0 0.01250000000005191 0.0
0.499547313951317 0.4984202829398231 0.0
0.7057142553715264 0.7049957919913439 0.0
0.2942617789825218 0.706558362574613 0.0
0.7052750732513358 0.29408370064617073 0.0
0.2941161372558304 0.29425664999463297 0.0
0.49473409022248005 0.7865288457870021 0.0
0.21400675843102512 0.49559804899934157 0.0
0.7879606576561358 0.5053778129282838 0.0
0.505369301426186 0.2119891966328729 0.0
0.8286074034533916 0.8287576993256224 0.0
0.17122528584787128 0.8286011816233976 0.0
0.8287577004551061 0.17139259539200086 0.0
0.17140751986106711 0.17123186221929698 0.0
0.6412438345717256 0.8516520873564006 0.0
0.14868333985619164 0.6419476520576217 0.0
0.36001439100831745 0.8471882363166383 0.0
0.8472916681795735 0.639858398754968 0.0
0.8516551147624887 0.3587551765143301 0.0
0.1529024464427883 0.36006180552290556 0.0
0.3587547979315107 0.148343271772372 0.0
0.6398585806283599 0.15270777331315408 0.0
0.5665851234669081 0.6415505082226679 0.0
0.3688065763014604 0.5781443560211958 0.0
0.6448511073779454 0.4469929790001165 0.0
0.43335085497228876 0.35323599965884955 0.0
0.42653529248703315 0.6555720715037009 0.0
0.6657620768186652 0.5502649260729648 0.0
0.3566111211511165 0.42874186251021185 0.0
0.5447859278293945 0.34262223816401394 0.0
0.4594948214297615 0.8920313032464312 0.0
[...]
POINT_DATA 7905
VECTORS vector double
0.0 0.0 0.0
0.0 0.0 0.0
0.0 0.0 0.0
0.0 0.0 0.0
0.0 0.0 0.0
0.0 0.0 0.0
0.0 0.0 0.0
0.0 0.0 0.0
0.0 0.0 0.0
0.0 0.0 0.0
0.0 0.0 0.0
0.0 0.0 0.0
0.0 0.0 0.0
0.0 0.0 0.0
0.0 0.0 0.0
0.0 0.0 0.0
0.0 0.0 0.0
0.0 0.0 0.0
0.0 0.0 0.0
0.0 0.0 0.0
0.0 0.0 0.0
0.0 0.0 0.0
0.0 0.0 0.0
0.0 0.0 0.0
0.0 0.0 0.0
0.0 0.0 0.0
0.0 0.0 0.0
0.0 0.0 0.0
0.0 0.0 0.0
0.0 0.0 0.0
0.0 0.0 0.0
0.0 0.0 0.0
0.0 0.0 0.0
0.0 0.0 0.0
0.0 0.0 0.0
0.0 0.0 0.0
0.0 0.0 0.0
0.0 0.0 0.0
0.0 0.0 0.0
0.0 0.0 0.0
0.0 0.0 0.0
0.0 0.0 0.0
0.0 0.0 0.0
0.0 0.0 0.0
0.0 0.0 0.0
0.0 0.0 0.0
0.0 0.0 0.0
0.0 0.0 0.0
0.0 0.0 0.0
0.0 0.0 0.0
0.0 0.0 0.0
0.0 0.0 0.0
0.0 0.0 0.0
0.0 0.0 0.0
0.0 0.0 0.0
0.0 0.0 0.0
0.0 0.0 0.0
0.0 0.0 0.0
0.0 0.0 0.0
0.0 0.0 0.0
0.0 0.0 0.0
0.0 0.0 0.0
0.0 0.0 0.0
0.0 0.0 0.0
0.0 0.0 0.0
0.0 0.0 0.0
0.0 0.0 0.0
0.0 0.0 0.0
0.0 0.0 0.0
0.0 0.0 0.0
0.0 0.0 0.0
0.0 0.0 0.0
0.0 0.0 0.0
0.0 0.0 0.0
0.0 0.0 0.0
0.0 0.0 0.0
0.0 0.0 0.0
0.0 0.0 0.0
0.0 0.0 0.0
0.0 0.0 0.0
0.0 0.0 0.0
0.0 0.0 0.0
0.0 0.0 0.0
0.0 0.0 0.0
0.0 0.0 0.0
0.0 0.0 0.0
0.0 0.0 0.0
0.0 0.0 0.0
0.0 0.0 0.0
0.0 0.0 0.0
0.0 0.0 0.0
0.0 0.0 0.0
0.0 0.0 0.0
0.0 0.0 0.0
0.0 0.0 0.0
0.0 0.0 0.0
0.0 0.0 0.0
0.0 0.0 0.0
0.0 0.0 0.0
0.0 0.0 0.0
0.0 0.0 0.0
0.0 0.0 0.0
0.0 0.0 0.0
0.0 0.0 0.0
0.0 0.0 0.0
0.0 0.0 0.0
0.0 0.0 0.0
0.0 0.0 0.0
0.0 0.0 0.0
0.0 0.0 0.0
0.0 0.0 0.0
0.0 0.0 0.0
0.0 0.0 0.0
0.0 0.0 0.0
0.0 0.0 0.0
0.0 0.0 0.0
0.0 0.0 0.0
0.0 0.0 0.0
0.0 0.0 0.0
0.0 0.0 0.0
0.0 0.0 0.0
0.0 0.0 0.0
0.0 0.0 0.0
0.0 0.0 0.0
0.0 0.0 0.0
0.0 0.0 0.0
0.0 0.0 0.0
0.0 0.0 0.0
0.0 0.0 0.0
0.0 0.0 0.0
0.0 0.0 0.0
0.0 0.0 0.0
0.0 0.0 0.0
0.0 0.0 0.0
0.0 0.0 0.0
0.0 0.0 0.0
0.0 0.0 0.0
0.0 0.0 0.0
0.0 0.0 0.0
0.0 0.0 0.0
0.0 0.0 0.0
0.0 0.0 0.0
0.0 0.0 0.0
0.0 0.0 0.0
0.0 0.0 0.0
0.0 0.0 0.0
0.0 0.0 0.0
0.0 0.0 0.0
0.0 0.0 0.0
0.0 0.0 0.0
0.0 0.0 0.0
0.0 0.0 0.0
0.0 0.0 0.0
0.0 0.0 0.0
0.0 0.0 0.0
0.0 0.0 0.0
0.0 0.0 0.0
0.0 0.0 0.0
0.0 0.0 0.0
0.0 0.0 0.0
0.0 0.0 0.0
0.0 0.0 0.0
1.0 0.0 0.0
1.0 0.0 0.0
1.0 0.0 0.0
1.0 0.0 0.0
1.0 0.0 0.0
1.0 0.0 0.0
1.0 0.0 0.0
1.0 0.0 0.0
1.0 0.0 0.0
1.0 0.0 0.0
1.0 0.0 0.0
1.0 0.0 0.0
1.0 0.0 0.0
1.0 0.0 0.0
1.0 0.0 0.0
1.0 0.0 0.0
1.0 0.0 0.0
1.0 0.0 0.0
1.0 0.0 0.0
1.0 0.0 0.0
1.0 0.0 0.0
1.0 0.0 0.0
1.0 0.0 0.0
1.0 0.0 0.0
1.0 0.0 0.0
1.0 0.0 0.0
1.0 0.0 0.0
1.0 0.0 0.0
1.0 0.0 0.0
1.0 0.0 0.0
1.0 0.0 0.0
1.0 0.0 0.0
1.0 0.0 0.0
1.0 0.0 0.0
1.0 0.0 0.0
1.0 0.0 0.0
1.0 0.0 0.0
1.0 0.0 0.0
1.0 0.0 0.0
1.0 0.0 0.0
1.0 0.0 0.0
1.0 0.0 0.0
1.0 0.0 0.0
1.0 0.0 0.0
1.0 0.0 0.0
1.0 0.0 0.0
1.0 0.0 0.0
1.0 0.0 0.0
1.0 0.0 0.0
1.0 0.0 0.0
1.0 0.0 0.0
1.0 0.0 0.0
1.0 0.0 0.0
1.0 0.0 0.0
1.0 0.0 0.0
1.0 0.0 0.0
1.0 0.0 0.0
1.0 0.0 0.0
1.0 0.0 0.0
1.0 0.0 0.0
1.0 0.0 0.0
1.0 0.0 0.0
1.0 0.0 0.0
1.0 0.0 0.0
1.0 0.0 0.0
1.0 0.0 0.0
1.0 0.0 0.0
1.0 0.0 0.0
1.0 0.0 0.0
1.0 0.0 0.0
1.0 0.0 0.0
1.0 0.0 0.0
1.0 0.0 0.0
1.0 0.0 0.0
1.0 0.0 0.0
1.0 0.0 0.0
1.0 0.0 0.0
1.0 0.0 0.0
1.0 0.0 0.0
0.0 0.0 0.0
0.0 0.0 0.0
0.0 0.0 0.0
0.0 0.0 0.0
0.0 0.0 0.0
0.0 0.0 0.0
0.0 0.0 0.0
0.0 0.0 0.0
0.0 0.0 0.0
0.0 0.0 0.0
0.0 0.0 0.0
0.0 0.0 0.0
0.0 0.0 0.0
0.0 0.0 0.0
0.0 0.0 0.0
0.0 0.0 0.0
0.0 0.0 0.0
0.0 0.0 0.0
0.0 0.0 0.0
0.0 0.0 0.0
0.0 0.0 0.0
0.0 0.0 0.0
0.0 0.0 0.0
0.0 0.0 0.0
0.0 0.0 0.0
0.0 0.0 0.0
0.0 0.0 0.0
0.0 0.0 0.0
0.0 0.0 0.0
0.0 0.0 0.0
0.0 0.0 0.0
0.0 0.0 0.0
0.0 0.0 0.0
0.0 0.0 0.0
0.0 0.0 0.0
0.0 0.0 0.0
0.0 0.0 0.0
0.0 0.0 0.0
0.0 0.0 0.0
0.0 0.0 0.0
0.0 0.0 0.0
0.0 0.0 0.0
0.0 0.0 0.0
0.0 0.0 0.0
0.0 0.0 0.0
0.0 0.0 0.0
0.0 0.0 0.0
0.0 0.0 0.0
0.0 0.0 0.0
0.0 0.0 0.0
0.0 0.0 0.0
0.0 0.0 0.0
0.0 0.0 0.0
0.0 0.0 0.0
0.0 0.0 0.0
0.0 0.0 0.0
0.0 0.0 0.0
0.0 0.0 0.0
0.0 0.0 0.0
0.0 0.0 0.0
0.0 0.0 0.0
0.0 0.0 0.0
0.0 0.0 0.0
0.0 0.0 0.0
0.0 0.0 0.0
0.0 0.0 0.0
0.0 0.0 0.0
0.0 0.0 0.0
0.0 0.0 0.0
0.0 0.0 0.0
0.0 0.0 0.0
0.0 0.0 0.0
0.0 0.0 0.0
0.0 0.0 0.0
0.0 0.0 0.0
0.0 0.0 0.0
0.0 0.0 0.0
0.0 0.0 0.0
0.0 0.0 0.0
-0.084442974564 0.0115319113881 0.0
-0.172377333565 -0.0713378670394 0.0
-0.112538163821 0.111439912693 0.0
-0.0388732970774 -0.0260063464641 0.0
-0.035106551752 0.0255843403896 0.0
-0.103080258264 0.0480659749691 0.0
-0.0467597337627 0.0724855163033 0.0
-0.0714840459316 -0.0896759542716 0.0
-0.0447492829029 0.00077113793849 0.0
-0.102388745625 -0.229004755996 0.0
-0.102154303659 0.200150422676 0.0
-0.0156285048781 -0.0140055556829 0.0
-0.0146438197093 0.0129155164136 0.0
0.0521604572041 0.00877157120518 0.0
-0.0509151326817 0.126001598355 0.0
-0.0227020028025 0.0739221160269 0.0
-0.113032570783 -0.182937145839 0.0
-0.0226165564334 -0.0464552080731 0.0
-0.0198435679111 0.0419169951323 0.0
-0.0317567018333 0.00672858025323 0.0
-0.0338209566787 -0.00647786341362 0.0
-0.133087342911 0.00492671180149 0.0
-0.101007188737 0.0603043780427 0.0
-0.0833069638127 -0.0331643526606 0.0
-0.0613101435348 0.0151239931417 0.0
-0.117490783424 0.0564159245089 0.0
-0.102804161247 -0.0501383541926 0.0
-0.0649494675858 0.0369888179019 0.0
-0.0631738216914 -0.00455832257427 0.0
0.198641039653 0.0308224326317 0.0
-0.0161369634753 0.0576796503079 0.0
-0.0381255243112 -0.102550655713 0.0
-0.0326935454202 -0.000728990709921 0.0
0.293567889386 -0.0282559968791 0.0
-0.0461863500207 0.165753155087 0.0
-0.00830295899605 -0.0222251859406 0.0
-0.0180684826826 0.00468029594716 0.0
-0.124720379581 -0.299738488123 0.0
0.109262552745 0.0865794508878 0.0
-0.0196936735761 -0.00508414858002 0.0
-0.0079016162155 0.0209372297155 0.0
-0.152306839029 0.00924518317536 0.0
-0.0852230836866 0.0980676460435 0.0
-0.0576175246939 -0.0491609964394 0.0
-0.048138852737 0.0124205092199 0.0
-0.130630704933 0.077127097746 0.0
-0.155344562116 -0.106114737313 0.0
-0.0450824957273 0.0452384029048 0.0
-0.0506789922394 -0.0102796551245 0.0
0.0118746357056 -0.343991388296 0.0
-0.0808990035799 0.256874339887 0.0
-0.00370284135173 -0.00371498522949 0.0
-0.00348437696151 0.0034327263423 0.0
0.360627070073 0.0126660934819 0.0
-0.0150944736833 0.0772471698936 0.0
-0.0112142208643 -0.0508278344805 0.0
-0.0251441466558 0.00140390184882 0.0
-0.201453169156 -0.182284609441 0.0
-0.11479685001 0.127746505123 0.0
-0.0321712571198 -0.015981964376 0.0
-0.0248520153987 0.028044638779 0.0
-0.118207090937 -0.0595913475416 0.0
-0.0986214755918 0.153471474616 0.0
-0.0270166211255 -0.0302107313708 0.0
-0.029423061869 0.0151397972109 0.0
-0.127477647573 0.0272964185326 0.0
-0.12356503669 -0.0130769646396 0.0
-0.087405217403 0.0362253882351 0.0
-0.081680693351 -0.00836716213397 0.0
-0.162335196672 -0.0376863836935 0.0
-0.107103170929 0.0811349640464 0.0
-0.0603787772304 -0.0227282963741 0.0
-0.0458429770394 0.0276605902721 0.0
0.415020065397 0.00259929671238 0.0
-0.014547802311 0.0946884535803 0.0
-0.00504022408407 -0.028823235768 0.0
-0.0173066705364 0.00181526051992 0.0
-0.0326491899467 -0.147173773666 0.0
-0.0197313779094 -0.0018826452848 0.0
0.309324640147 0.029846882724 0.0
-0.00537002095972 0.0289124729581 0.0
0.271313915501 -0.0897513740372 0.0
-0.0593215094725 0.221213500794 0.0
-0.00379508912824 -0.00941583046688 0.0
-0.00815242106976 0.00327772724631 0.0
-0.11878547524 -0.426161585538 0.0
-0.00869734953035 -0.00360258962007 0.0
0.0842574081849 0.124388813652 0.0
-0.00366019838336 0.00885064298113 0.0
-0.1476415958 0.0386521849814 0.0
-0.0703762580656 0.0606674485741 0.0
-0.0768359447161 -0.0635451127581 0.0
-0.0472615248556 0.00253195441385 0.0
-0.0245815637469 0.0307743173039 0.0
-0.0382772340031 0.0933774754179 0.0
-0.0330594151725 -0.0722993634 0.0
-0.03427822965 0.00368409181688 0.0
-0.0648187946945 0.0605631867342 0.0
-0.0179549618041 0.0568587690601 0.0
-0.0415223201887 -0.127484068061 0.0
-0.0216899676259 -0.00397193456647 0.0
-0.0773178694625 0.0150279230309 0.0
-0.071166650338 0.00382183919713 0.0
-0.0710611652279 -0.00678679756265 0.0
-0.0798588221452 0.00305004974074 0.0
-0.00103528708059 -0.00201936952908 0.0
-0.000525432571372 -0.000535035036143 0.0
-0.00189250148215 0.000967639315599 0.0
-0.000484867516191 0.000495023982748 0.0
0.340289275865 -0.143334680247 0.0
0.045280303558 -0.36867136848 0.0
-0.0671027674571 0.271058677338 0.0
-0.0587004382547 0.283210792773 0.0
-0.00205523993665 -0.00105841394867 0.0
-0.000982433503601 0.0018905816534 0.0
-0.0756442436509 -0.485620452686 0.0
0.120777750035 0.150800340053 0.0
-0.0637585877473 0.00543318519594 0.0
-0.0691440492749 0.0153048717491 0.0
-0.13918693599 0.0485053222204 0.0
-0.139539082831 0.0564334842411 0.0
-0.13558434857 0.0652245041299 0.0
-0.103942840289 -0.0587142342789 0.0
-0.107239011444 -0.0797952255178 0.0
-0.130106793027 -0.0702479987993 0.0
-0.0666452810458 0.0482038727989 0.0
-0.0563075260088 0.0545874617493 0.0
-0.0556518137216 0.0432076174066 0.0
-0.0572900317526 -0.000823779255402 0.0
-0.051759707614 -0.00354711599707 0.0
-0.055514619939 -0.00879779097095 0.0
-0.0944188243537 0.0475079756316 0.0
-0.103209168143 0.0328912089504 0.0
-0.111485471041 0.0446903854239 0.0
-0.12776122755 0.0436299347665 0.0
-0.117019662097 0.0574333815198 0.0
-0.0997510673358 -0.0249193857775 0.0
-0.0964332123053 -0.0108747335357 0.0
-0.0828106316222 -0.0200837831438 0.0
-0.10072722699 -0.0406430386385 0.0
-0.119564688591 -0.0328471487812 0.0
-0.137683576123 0.0450696506357 0.0
-0.123510527703 0.0595346952324 0.0
-0.0593333831904 0.0684176375435 0.0
-0.0461093791932 0.0593915879298 0.0
-0.0820637554941 -0.0761686903638 0.0
-0.0980389319137 -0.098573828871 0.0
-0.0491706679037 0.00167956702497 0.0
-0.0467957675874 -0.00334668224493 0.0
-0.0684598384386 0.117736789615 0.0
-0.0905878537408 0.126025038651 0.0
-0.0739340078204 0.142789724447 0.0
-0.0782852761009 0.0101841871733 0.0
-0.137326005975 -0.0185931221105 0.0
-0.0374995005146 -0.0135770444294 0.0
-0.0380676302101 0.00970503039008 0.0
-0.0373627517448 0.0147549165749 0.0
-0.0315068133631 0.0105492998206 0.0
-0.0361245317585 -0.0502225001039 0.0
-0.0371618476013 -0.0393935277038 0.0
-0.0254047234603 -0.0386124911694 0.0
-0.111281159839 0.130424209499 0.0
-0.104604504742 0.109005086809 0.0
-0.180699299101 -0.0659947474403 0.0
-0.178969702295 -0.0311309608302 0.0
-0.0343927682016 0.0204716534101 0.0
-0.0420944291306 0.0197283130553 0.0
-0.0362690288749 -0.0293772710753 0.0
-0.0466013030275 -0.0346804464564 0.0
-0.166484676683 -0.19914668874 0.0
-0.1793935914 -0.143570705138 0.0
-0.13790386465 -0.152793378648 0.0
-0.0835181166699 0.100571969059 0.0
-0.122155360211 0.101218689846 0.0
-0.0997996278104 0.0825588985543 0.0
-0.0337926330532 -0.0106538333921 0.0
-0.0401267629257 -0.0144275501906 0.0
-0.0397674336014 -0.00910548245921 0.0
-0.022613849642 0.0351972117927 0.0
-0.0321315939142 0.0361099710168 0.0
-0.0298323095087 0.0442099753053 0.0
-0.0722791006561 0.0269399059376 0.0
-0.0639223268572 0.0254907583354 0.0
0.560291987393 0.00956216766328 0.0
0.567205487562 0.00808445910024 0.0
-0.00348535308785 0.0304044377956 0.0
-0.00445428475736 0.0386862622108 0.0
-0.0107236468755 -0.0699649485152 0.0
-0.00758667569471 -0.0538316472668 0.0
-0.0178237389086 -0.000396011554056 0.0
-0.0186307589885 -6.24353902218e-06 0.0
-0.011346856234 -0.0821498894283 0.0
-0.0365953491561 -0.125662650657 0.0
-0.0144507753865 -0.000562245736846 0.0
-0.0257588065164 -0.00167775541796 0.0
0.60564115895 0.00927642071051 0.0
0.278155434111 0.029770280023 0.0
-0.00215258203621 0.020963104435 0.0
-0.00872685593935 0.0396853125423 0.0
-0.0850136190221 -0.0482180848835 0.0
-0.0570356690923 0.00754757968039 0.0
-0.181162358044 -0.0954454501786 0.0
-0.199322506349 -0.11614182607 0.0
-0.128908339987 0.0977103659601 0.0
-0.124394710625 0.120687881432 0.0
-0.0457922317965 -0.0187118482416 0.0
-0.0377735859771 -0.0211579021275 0.0
-0.0399234444885 0.0333106160085 0.0
-0.0325372711406 0.0276247024764 0.0
-0.123845585993 0.0687705465284 0.0
-0.108658306091 0.0722443454515 0.0
-0.0567006250076 0.0326151177088 0.0
-0.0561807861632 0.0224561054951 0.0
-0.0815549728923 0.0260088965327 0.0
-0.0750302545347 0.0379593077897 0.0
-0.107441973356 0.0174454879004 0.0
-0.0931197150581 0.0235040689854 0.0
-0.0906876253221 0.00145637064753 0.0
-0.105275198852 0.0015904189162 0.0
-0.0669177015706 -0.146245330171 0.0
-0.0737932931724 -0.180006233652 0.0
-0.0331431544294 -0.0032312595546 0.0
-0.0278639142582 -0.00382031930092 0.0
0.0654812714377 0.0504035676898 0.0
0.125998658126 0.0533971951228 0.0
-0.0173911419896 0.049015878985 0.0
-0.0116946475175 0.0371571464077 0.0
0.638858814812 -0.00608384673552 0.0
0.610089075196 -0.0157773553205 0.0
-0.0115376730258 0.0972915466753 0.0
-0.017270556238 0.125850406929 0.0
-0.00206560869457 -0.0138405311188 0.0
-0.001885473913 -0.0103210406015 0.0
-0.0106986681833 0.00110173338069 0.0
-0.00864283335112 0.00128338545206 0.0
-0.0468089292435 -0.249328770616 0.0
-0.0319194388439 -0.176088252218 0.0
-0.00952434867121 -0.00143014769915 0.0
-0.0119036147201 -0.00121222052066 0.0
0.44164934286 0.0359147985846 0.0
0.502898580643 0.0234620615715 0.0
-0.00185293809195 0.00995321047995 0.0
-0.00203216972018 0.0135091880691 0.0
0.292898995068 0.0189463782618 0.0
0.624100129581 0.00539220466738 0.0
-0.0150058832766 0.067561286672 0.0
-0.00434811707706 0.0434429198016 0.0
-0.0179303900162 -0.0697454183306 0.0
-0.00424579995388 -0.0374729012118 0.0
-0.0283527399557 0.000692102881542 0.0
-0.0165790471674 0.000295325325598 0.0
-0.128041969506 -0.235608702286 0.0
-0.183757086024 -0.260120923281 0.0
0.0219984160297 0.0838259945076 0.0
-0.064998546845 0.122852458303 0.0
-0.0275787538234 -0.00663909753608 0.0
-0.0263712384155 -0.0106091782044 0.0
-0.0136872799189 0.031657407792 0.0
-0.0163568898861 0.0261980844198 0.0
-0.0607879127658 0.0387061548326 0.0
0.0678435043627 0.0329838754833 0.0
-0.0202479778626 0.0450186740266 0.0
-0.0446194564277 0.0840977795793 0.0
-0.0285785543026 0.0787395524063 0.0
-0.0321491205141 0.0709324314249 0.0
-0.0516808680053 -0.0812661551499 0.0
-0.0364811870421 -0.0854241657268 0.0
-0.0563478009099 -0.101872875591 0.0
-0.0414771910861 0.00284404661391 0.0
-0.0361348190188 0.00123559042382 0.0
-0.039511935264 -0.000197747485472 0.0
-0.156719635119 -0.0125584426855 0.0
-0.174357955959 -0.0177995844426 0.0
-0.16310650791 0.00626454981408 0.0
-0.103933179695 0.0892300517205 0.0
-0.0926958957148 0.0770247184693 0.0
-0.0699486430547 -0.0280787233579 0.0
-0.0586165170942 -0.0341869272201 0.0
-0.0698940920445 -0.0416527994729 0.0
-0.0492140288467 0.0201531293421 0.0
-0.0537426066138 0.0142844134065 0.0
0.0557434367816 -0.0971700422969 0.0
0.0206330454577 -0.047709694804 0.0
-0.107287985064 -0.124734771955 0.0
-0.0852776776442 0.200908032774 0.0
-0.078582746637 0.171501003968 0.0
-0.105882523469 0.179298695068 0.0
-0.0124188593095 -0.0195759958469 0.0
-0.0174033646879 -0.0281714843439 0.0
-0.0205569246886 -0.0218511156324 0.0
-0.0176186937353 0.00880114643739 0.0
-0.0242587774874 0.00987492403028 0.0
-0.0219943157518 0.0146157091657 0.0
-0.180435088917 -0.0532310149382 0.0
-0.11868788917 0.0952247023533 0.0
-0.0511153028026 -0.0255400231494 0.0
-0.0449035147822 0.0269597725761 0.0
-0.137110650826 -0.00440532009374 0.0
-0.139685517293 -0.0245665160036 0.0
-0.139577129703 -0.0475306605896 0.0
-0.0706138203119 -0.0168743605244 0.0
-0.0616749008062 -0.0134378959496 0.0
0.66995697625 0.00351341946216 0.0
-0.00427954806381 0.048245235115 0.0
-0.00265494169991 -0.0267076688958 0.0
-0.0142289138189 0.000442896475066 0.0
-0.0847101451491 0.0566160628217 0.0
-0.104987825367 0.0683397075961 0.0
-0.0781452050569 -0.111402928232 0.0
-0.105424137415 -0.124850786228 0.0
-0.035783892653 0.0630236588228 0.0
-0.0351001256026 0.0532350689229 0.0
-0.0415054841465 -0.00237739716039 0.0
-0.042066869212 -0.0059586224249 0.0
0.298508267524 -0.0608306075833 0.0
0.60330372829 -0.0279644946428 0.0
-0.0544187298741 0.19680233793 0.0
-0.021740910603 0.151174212891 0.0
-0.00569726709284 -0.0144859330776 0.0
-0.00137475590801 -0.00647585065678 0.0
-0.0124146534775 0.00416680196072 0.0
-0.00576387314787 0.0011054466154 0.0
-0.052616771898 -0.314300852935 0.0
-0.12920255755 -0.374868354199 0.0
-0.00631670602432 -0.00123059057882 0.0
-0.0134037476382 -0.0045836999427 0.0
0.417220216444 0.0463000061862 0.0
0.0969254690425 0.108704642759 0.0
-0.00134457861003 0.00619799784008 0.0
-0.00548993812122 0.0136293016899 0.0
-0.0514412539664 0.146884011353 0.0
0.137310170769 -0.0091044499751 0.0
-0.0255623895129 0.00644781430988 0.0
-0.014906026787 -0.0341843190823 0.0
-0.188623270252 -0.215941463995 0.0
-0.178493842099 -0.319876836243 0.0
-0.108869795278 0.16019066965 0.0
-0.0569769536714 0.150483176127 0.0
-0.0238991902389 -0.0158656668158 0.0
-0.0190149938047 -0.0096325959839 0.0
-0.0193056405811 0.020322950144 0.0
-0.0118408605794 0.0182425533191 0.0
-0.00118024350049 -0.00390384444673 0.0
0.529205115521 -0.0567600820783 0.0
-0.00361633953306 0.00104036603971 0.0
-0.03504657542 0.19861073597 0.0
-0.0666079162752 -0.406910504729 0.0
-0.00394634585248 -0.00115086647436 0.0
0.315449166547 0.0754067072918 0.0
-0.00113945515584 0.00369888217643 0.0
0.132745655013 0.0234582077302 0.0
-0.0286591188901 0.0903724948877 0.0
-0.0242025860943 -0.0665937054754 0.0
-0.0328745754041 0.0025388712397 0.0
-0.0043478242627 -0.00692539268326 0.0
-0.00637009511186 0.00382555141248 0.0
0.173841547097 -0.179029403119 0.0
-0.0831679028644 0.255828114485 0.0
-0.109637032476 -0.43727946168 0.0
-0.00681944495617 -0.00417987231391 0.0
-0.0118806091317 0.185376540752 0.0
-0.00414706360563 0.00645911736102 0.0
-0.185724685693 -0.127050348368 0.0
-0.117276846151 0.148839592104 0.0
-0.0293800340645 -0.0225251095148 0.0
-0.0269379760794 0.0210266816488 0.0
-0.152949919884 0.0270323765175 0.0
-0.151446869936 0.0209209475818 0.0
-0.0755960008641 0.0760936535158 0.0
-0.0853163185274 0.0623406004787 0.0
-0.0725049166363 -0.0574044498505 0.0
-0.051089451285 0.00769641683821 0.0
-0.0103418416193 0.0516132806142 0.0
-0.0252235989862 0.0594339582044 0.0
-0.0544137762227 0.0654395543261 0.0
-0.0256405200769 0.0510224856977 0.0
-0.0654294664208 -0.124870422499 0.0
-0.0371096114554 -0.00243622250061 0.0
-0.0933593415382 -0.147305567754 0.0
-0.0373443030315 -0.00524886222705 0.0
0.693639883706 -0.000754896112311 0.0
0.385906072673 -0.00422850889481 0.0
-0.00621892805494 0.0685200340424 0.0
-0.0258616213547 0.124059526875 0.0
0.238560544234 0.0486433113978 0.0
0.244997061771 0.00569579598165 0.0
-0.0313565230987 0.118479933434 0.0
-0.0675237094389 -0.208663834883 0.0
-0.00657308890475 0.0256088744416 0.0
-0.0209095735322 -0.00311688804683 0.0
0.591439462982 0.0126662245244 0.0
-0.0163213618488 -0.111826083385 0.0
-0.00179883124216 0.0159656729856 0.0
-0.0126110256657 -0.000763592981928 0.0
-0.00173072102691 -0.0157901276832 0.0
-0.00681876195013 -0.0266848061393 0.0
-0.0110209870761 0.000692973072577 0.0
-0.0189828937238 0.00295810059575 0.0
-0.01220380441 -0.0389432951785 0.0
-0.0252541611467 0.00388054708283 0.0
-0.124815019356 0.034689778893 0.0
-0.0616681557763 0.0840116104629 0.0
-0.0625227766708 -0.0687865452964 0.0
-0.0462460817807 0.00554115903567 0.0
-0.139919092431 0.031869743595 0.0
-0.137626737385 0.0146164802325 0.0
-0.0796099778068 0.0491795818309 0.0
0.0837660933688 -0.152878243081 0.0
-0.0888836777398 0.228609509803 0.0
-0.148597475977 -0.370942521856 0.0
-0.00851913298288 -0.0128091395143 0.0
-0.0505279983224 0.176992595514 0.0
-0.0117565048329 0.00695706082107 0.0
-0.0125539134874 -0.00759887563342 0.0
-0.00811662395413 0.0119062855709 0.0
0.0115385420878 0.0221467953067 0.0
-0.0847974035969 0.0274093336475 0.0
-0.0467109547563 0.107636290655 0.0
-0.0584925731671 0.0987982666822 0.0
-0.0456757401849 -0.0636606614382 0.0
-0.0303853683881 -0.0593843444877 0.0
-0.0358517043181 0.00554376757647 0.0
-0.0415079342452 0.00674574152112 0.0
-0.12962524807 0.0810666917117 0.0
-0.16002321644 -0.0701365679483 0.0
-0.0485253643196 0.0354885303592 0.0
-0.0534463231846 -0.0165063960406 0.0
-0.0475025256657 -0.292767147222 0.0
-0.092627487279 0.229792494924 0.0
-0.00870858579099 -0.00847508988667 0.0
-0.00822680165939 0.00782029555125 0.0
-0.122234788949 0.00699792717111 0.0
0.413382333458 0.00763910692863 0.0
0.704301992258 0.00164189781654 0.0
-0.0154720738649 0.087103469409 0.0