# vtk DataFile Version 2.0
2D Simulation Python
ASCII
DATASET UNSTRUCTURED_GRID
FIELD FieldData 1
NODES 1 2 int
7905 15488

POINTS 7905 double
0.0 0.0 0.0
1.0 0.0 0.0
1.0 1.0 0.0
0.0 1.0 0.0
0.01249999999997639 0.0 0.0
0.02499999999995297 0.0 0.0
0.03749999999992721 0.0 0.0
0.04999999999989927 0.0 0.0
0.0624999999998716 0.0 0.0
0.07499999999985263 0.0 0.0
0.08749999999983366 0.0 0.0
0.09999999999981467 0.0 0.0
0.1124999999997956 0.0 0.0
0.1249999999997765 0.0 0.0
0.1374999999997401 0.0 0.0
0.1499999999997036 0.0 0.0
0.1624999999996672 0.0 0.0
0.1749999999996308 0.0 0.0
0.1874999999995943 0.0 0.0
0.1999999999995579 0.0 0.0
0.2124999999995214 0.0 0.0
0.224999999999485 0.0 0.0
0.2374999999994485 0.0 0.0
0.2499999999994121 0.0 0.0
0.2624999999993757 0.0 0.0
0.2749999999993393 0.0 0.0
0.2874999999993028 0.0 0.0
0.2999999999992664 0.0 0.0
0.3124999999992299 0.0 0.0
0.3249999999991935 0.0 0.0
0.3374999999991571 0.0 0.0
0.3499999999991207 0.0 0.0
0.3624999999990842 0.0 0.0
0.3749999999990478 0.0 0.0
0.3874999999990113 0.0 0.0
0.3999999999989749 0.0 0.0
0.4124999999989398 0.0 0.0
0.4249999999989048 0.0 0.0
0.4374999999988697 0.0 0.0
0.4499999999988346 0.0 0.0
0.4624999999987995 0.0 0.0
0.4749999999987644 0.0 0.0
0.4874999999987293 0.0 0.0
0.4999999999986943 0.0 0.0
0.5124999999987259 0.0 0.0
0.5249999999987575 0.0 0.0
0.5374999999987891 0.0 0.0
0.5499999999988205 0.0 0.0
0.5624999999988521 0.0 0.0
0.5749999999988837 0.0 0.0
0.5874999999989152 0.0 0.0
0.5999999999989468 0.0 0.0
0.6124999999989797 0.0 0.0
0.6249999999990127 0.0 0.0
0.6374999999990456 0.0 0.0
0.6499999999990784 0.0 0.0
0.6624999999991114 0.0 0.0
0.6749999999991443 0.0 0.0
0.6874999999991771 0.0 0.0
0.69999999999921 0.0 0.0
0.712499999999243 0.0 0.0
0.7249999999992759 0.0 0.0
0.7374999999993088 0.0 0.0
0.7499999999993416 0.0 0.0
0.7624999999993746 0.0 0.0
0.7749999999994075 0.0 0.0
0.7874999999994404 0.0 0.0
0.7999999999994734 0.0 0.0
0.8124999999995063 0.0 0.0
0.8249999999995392 0.0 0.0
0.8374999999995721 0.0 0.0
0.8499999999996051 0.0 0.0
0.862499999999638 0.0 0.0
0.8749999999996709 0.0 0.0
0.8874999999997039 0.0 0.0
0.8999999999997368 0.0 0.0
0.9124999999997697 0.0 0.0
0.9249999999998026 0.0 0.0
0.9374999999998355 0.0 0.0
0.9499999999998684 0.0 0.0
0.9624999999999013 0.0 0.0
0.9749999999999343 0.0 0.0
0.9874999999999672 0.0 0.0
1.0 0.01249999999997639 0.0
1.0 0.02499999999995297 0.0
1.0 0.03749999999992721 0.0
1.0 0.04999999999989927 0.0
1.0 0.0624999999998716 0.0
1.0 0.07499999999985263 0.0
1.0 0.08749999999983366 0.0
1.0 0.09999999999981467 0.0
1.0 0.1124999999997956 0.0
1.0 0.1249999999997765 0.0
1.0 0.1374999999997401 0.0
1.0 0.1499999999997036 0.0
1.0 0.1624999999996672 0.0
1.0 0.1749999999996308 0.0
1.0 0.1874999999995943 0.0
1.0 0.1999999999995579 0.0
1.0 0.2124999999995214 0.0
1.0 0.224999999999485 0.0
1.0 0.2374999999994485 0.0
1.0 0.2499999999994121 0.0
1.0 0.2624999999993757 0.0
1.0 0.2749999999993393 0.0
1.0 0.2874999999993028 0.0
1.0 0.2999999999992664 0.0
1.0 0.3124999999992299 0.0
1.0 0.3249999999991935 0.0
1.0 0.3374999999991571 0.0
1.0 0.3499999999991207 0.0
1.0 0.3624999999990842 0.0
1.0 0.3749999999990478 0.0
1.0 0.3874999999990113 0.0
1.0 0.3999999999989749 0.0
1.0 0.4124999999989398 0.0
1.0 0.4249999999989048 0.0
1.0 0.4374999999988697 0.0
1.0 0.4499999999988346 0.0
1.0 0.4624999999987995 0.0
1.0 0.4749999999987644 0.0
1.0 0.4874999999987293 0.0
1.0 0.4999999999986943 0.0
1.0 0.5124999999987259 0.0
1.0 0.5249999999987575 0.0
1.0 0.5374999999987891 0.0
1.0 0.5499999999988205 0.0
1.0 0.5624999999988521 0.0
1.0 0.5749999999988837 0.0
1.0 0.5874999999989152 0.0
1.0 0.5999999999989468 0.0
1.0 0.6124999999989797 0.0
1.0 0.6249999999990127 0.0
1.0 0.6374999999990456 0.0
1.0 0.6499999999990784 0.0
1.0 0.6624999999991114 0.0
1.0 0.6749999999991443 0.0
1.0 0.6874999999991771 0.0
1.0 0.69999999999921 0.0
1.0 0.712499999999243 0.0
1.0 0.7249999999992759 0.0
1.0 0.7374999999993088 0.0
1.0 0.7499999999993416 0.0
1.0 0.7624999999993746 0.0
1.0 0.7749999999994075 0.0
1.0 0.7874999999994404 0.0
1.0 0.7999999999994734 0.0
1.0 0.8124999999995063 0.0
1.0 0.8249999999995392 0.0
1.0 0.8374999999995721 0.0
1.0 0.8499999999996051 0.0
1.0 0.862499999999638 0.0
1.0 0.8749999999996709 0.0
1.0 0.8874999999997039 0.0
1.0 0.8999999999997368 0.0
1.0 0.9124999999997697 0.0
1.0 0.9249999999998026 0.0
1.0 0.9374999999998355 0.0
1.0 0.9499999999998684 0.0
1.0 0.9624999999999013 0.0
1.0 0.9749999999999343 0.0
1.0 0.9874999999999672 0.0
0.9874999999999439 1.0 0.0
0.9749999999998877 1.0 0.0
0.9624999999998541 1.0 0.0
0.9499999999998356 1.0 0.0
0.9374999999997805 1.0 0.0
0.9249999999996992 1.0 0.0
0.9124999999996414 1.0 0.0
0.8999999999995836 1.0 0.0
0.8874999999996454 1.0 0.0
0.8749999999997078 1.0 0.0
0.8624999999997771 1.0 0.0
0.8499999999998515 1.0 0.0
0.837499999999895 1.0 0.0
0.8249999999999216 1.0 0.0
0.8124999999999571 1.0 0.0
0.7999999999999998 1.0 0.0
0.7875000000000937 1.0 0.0
0.77500000000021 1.0 0.0
0.7625000000002968 1.0 0.0
0.7500000000003858 1.0 0.0
0.7375000000004739 1.0 0.0
0.7250000000005448 1.0 0.0
0.7125000000005861 1.0 0.0
0.7000000000006934 1.0 0.0
0.6875000000008109 1.0 0.0
0.6750000000009306 1.0 0.0
0.6625000000010091 1.0 0.0
0.6500000000010593 1.0 0.0
0.6375000000011386 1.0 0.0
0.6250000000012101 1.0 0.0
0.612500000001312 1.0 0.0
0.6000000000013869 1.0 0.0
0.5875000000014601 1.0 0.0
0.5750000000015277 1.0 0.0
0.5625000000016089 1.0 0.0
0.5500000000016854 1.0 0.0
0.5375000000017889 1.0 0.0
0.5250000000018821 1.0 0.0
0.5125000000019756 1.0 0.0
0.5000000000020587 1.0 0.0
0.4875000000020093 1.0 0.0
0.4750000000019601 1.0 0.0
0.4625000000019108 1.0 0.0
0.4500000000018616 1.0 0.0
0.4375000000018123 1.0 0.0
0.425000000001763 1.0 0.0
0.4125000000017136 1.0 0.0
0.4000000000016644 1.0 0.0
0.3875000000016123 1.0 0.0
0.3750000000015603 1.0 0.0
0.3625000000015083 1.0 0.0
0.3500000000014563 1.0 0.0
0.3375000000014042 1.0 0.0
0.3250000000013522 1.0 0.0
0.3125000000013003 1.0 0.0
0.3000000000012483 1.0 0.0
0.2875000000011962 1.0 0.0
0.2750000000011442 1.0 0.0
0.2625000000010922 1.0 0.0
0.2500000000010403 1.0 0.0
0.2375000000009883 1.0 0.0
0.2250000000009362 1.0 0.0
0.2125000000008842 1.0 0.0
0.2000000000008322 1.0 0.0
0.1875000000007802 1.0 0.0
0.1750000000007281 1.0 0.0
0.1625000000006761 1.0 0.0
0.1500000000006241 1.0 0.0
0.1375000000005721 1.0 0.0
0.12500000000052 1.0 0.0
0.112500000000468 1.0 0.0
0.100000000000416 1.0 0.0
0.08750000000036395 1.0 0.0
0.07500000000031193 1.0 0.0
0.06250000000026001 1.0 0.0
0.05000000000020799 1.0 0.0
0.03750000000015596 1.0 0.0
0.02500000000010394 1.0 0.0
0.01250000000005191 1.0 0.0
0.0 0.9874999999999439 0.0
0.0 0.9749999999998877 0.0
0.0 0.9624999999998541 0.0
0.0 0.9499999999998356 0.0
0.0 0.9374999999997805 0.0
0.0 0.9249999999996992 0.0
0.0 0.9124999999996414 0.0
0.0 0.8999999999995836 0.0
0.0 0.8874999999996454 0.0
0.0 0.8749999999997078 0.0
0.0 0.8624999999997771 0.0
0.0 0.8499999999998515 0.0
0.0 0.837499999999895 0.0
0.0 0.8249999999999216 0.0
0.0 0.8124999999999571 0.0
0.0 0.7999999999999998 0.0
0.0 0.7875000000000937 0.0
0.0 0.77500000000021 0.0
0.0 0.7625000000002968 0.0
0.0 0.7500000000003858 0.0
0.0 0.7375000000004739 0.0
0.0 0.7250000000005448 0.0
0.0 0.7125000000005861 0.0
0.0 0.7000000000006934 0.0
0.0 0.6875000000008109 0.0
0.0 0.6750000000009306 0.0
0.0 0.6625000000010091 0.0
0.0 0.6500000000010593 0.0
0.0 0.6375000000011386 0.0
0.0 0.6250000000012101 0.0
0.0 0.612500000001312 0.0
0.0 0.6000000000013869 0.0
0.0 0.5875000000014601 0.0
0.0 0.5750000000015277 0.0
0.0 0.5625000000016089 0.0
0.0 0.5500000000016854 0.0
0.0 0.5375000000017889 0.0
0.0 0.5250000000018821 0.0
0.0 0.5125000000019756 0.0
0.0 0.5000000000020587 0.0
0.0 0.4875000000020093 0.0
0.0 0.4750000000019601 0.0
0.0 0.4625000000019108 0.0
0.0 0.4500000000018616 0.0
0.0 0.4375000000018123 0.0
0.0 0.425000000001763 0.0
0.0 0.4125000000017136 0.0
0.0 0.4000000000016644 0.0
0.0 0.3875000000016123 0.0
0.0 0.3750000000015603 0.0
0.0 0.3625000000015083 0.0
0.0 0.3500000000014563 0.0
0.0 0.3375000000014042 0.0
0.0 0.3250000000013522 0.0
0.0 0.3125000000013003 0.0
0.0 0.3000000000012483 0.0
0.0 0.2875000000011962 0.0
0.0 0.2750000000011442 0.0
0.0 0.2625000000010922 0.0
0.0 0.2500000000010403 0.0
0.0 0.2375000000009883 0.0
0.0 0.2250000000009362 0.0
0.0 0.2125000000008842 0.0
0.0 0.2000000000008322 0.0
0.0 0.1875000000007802 0.0
0.0 0.1750000000007281 0.0
0.0 0.1625000000006761 0.0
0.0 0.1500000000006241 0.0
0.0 0.1375000000005721 0.0
0.0 0.12500000000052 0.0
0.0 0.112500000000468 0.0
0.0 0.100000000000416 0.0
0.0 0.08750000000036395 0.0
0.0 0.07500000000031193 0.0
0.0 0.06250000000026001 0.0
0.0 0.05000000000020799 0.0
0.0 0.03750000000015596 0.0
0.0 0.02500000000010394 0.0
0.0 0.01250000000005191 0.0
0.499547313951317 0.4984202829398231 0.0
0.7057142553715264 0.7049957919913439 0.0
0.2942617789825218 0.706558362574613 0.0
0.7052750732513358 0.29408370064617073 0.0
0.2941161372558304 0.29425664999463297 0.0
0.49473409022248005 0.7865288457870021 0.0
0.21400675843102512 0.49559804899934157 0.0
0.7879606576561358 0.5053778129282838 0.0
0.505369301426186 0.2119891966328729 0.0
0.8286074034533916 0.8287576993256224 0.0
0.17122528584787128 0.8286011816233976 0.0
0.8287577004551061 0.17139259539200086 0.0
0.17140751986106711 0.17123186221929698 0.0
0.6412438345717256 0.8516520873564006 0.0
0.14868333985619164 0.6419476520576217 0.0
0.36001439100831745 0.8471882363166383 0.0
0.8472916681795735 0.639858398754968 0.0
0.8516551147624887 0.3587551765143301 0.0
0.1529024464427883 0.36006180552290556 0.0
0.3587547979315107 0.148343271772372 0.0
0.6398585806283599 0.15270777331315408 0.0
0.5665851234669081 0.6415505082226679 0.0
0.3688065763014604 0.5781443560211958 0.0
0.6448511073779454 0.4469929790001165 0.0
0.43335085497228876 0.35323599965884955 0.0
0.42653529248703315 0.6555720715037009 0.0
0.6657620768186652 0.5502649260729648 0.0
0.3566111211511165 0.42874186251021185 0.0
0.5447859278293945 0.34262223816401394 0.0
0.4594948214297615 0.8920313032464312 0.0
[...]
POINT_DATA 7905
VECTORS vector double
0.0 0.0 0.0
0.0 0.0 0.0
0.0 0.0 0.0
0.0 0.0 0.0
0.0 0.0 0.0
0.0 0.0 0.0
0.0 0.0 0.0
0.0 0.0 0.0
0.0 0.0 0.0
0.0 0.0 0.0
0.0 0.0 0.0
0.0 0.0 0.0
0.0 0.0 0.0
0.0 0.0 0.0
0.0 0.0 0.0
0.0 0.0 0.0
0.0 0.0 0.0
0.0 0.0 0.0
0.0 0.0 0.0
0.0 0.0 0.0
0.0 0.0 0.0
0.0 0.0 0.0
0.0 0.0 0.0
0.0 0.0 0.0
0.0 0.0 0.0
0.0 0.0 0.0
0.0 0.0 0.0
0.0 0.0 0.0
0.0 0.0 0.0
0.0 0.0 0.0
0.0 0.0 0.0
0.0 0.0 0.0
0.0 0.0 0.0
0.0 0.0 0.0
0.0 0.0 0.0
0.0 0.0 0.0
0.0 0.0 0.0
0.0 0.0 0.0
0.0 0.0 0.0
0.0 0.0 0.0
0.0 0.0 0.0
0.0 0.0 0.0
0.0 0.0 0.0
0.0 0.0 0.0
0.0 0.0 0.0
0.0 0.0 0.0
0.0 0.0 0.0
0.0 0.0 0.0
0.0 0.0 0.0
0.0 0.0 0.0
0.0 0.0 0.0
0.0 0.0 0.0
0.0 0.0 0.0
0.0 0.0 0.0
0.0 0.0 0.0
0.0 0.0 0.0
0.0 0.0 0.0
0.0 0.0 0.0
0.0 0.0 0.0
0.0 0.0 0.0
0.0 0.0 0.0
0.0 0.0 0.0
0.0 0.0 0.0
0.0 0.0 0.0
0.0 0.0 0.0
0.0 0.0 0.0
0.0 0.0 0.0
0.0 0.0 0.0
0.0 0.0 0.0
0.0 0.0 0.0
0.0 0.0 0.0
0.0 0.0 0.0
0.0 0.0 0.0
0.0 0.0 0.0
0.0 0.0 0.0
0.0 0.0 0.0
0.0 0.0 0.0
0.0 0.0 0.0
0.0 0.0 0.0
0.0 0.0 0.0
0.0 0.0 0.0
0.0 0.0 0.0
0.0 0.0 0.0
0.0 0.0 0.0
0.0 0.0 0.0
0.0 0.0 0.0
0.0 0.0 0.0
0.0 0.0 0.0
0.0 0.0 0.0
0.0 0.0 0.0
0.0 0.0 0.0
0.0 0.0 0.0
0.0 0.0 0.0
0.0 0.0 0.0
0.0 0.0 0.0
0.0 0.0 0.0
0.0 0.0 0.0
0.0 0.0 0.0
0.0 0.0 0.0
0.0 0.0 0.0
0.0 0.0 0.0
0.0 0.0 0.0
0.0 0.0 0.0
0.0 0.0 0.0
0.0 0.0 0.0
0.0 0.0 0.0
0.0 0.0 0.0
0.0 0.0 0.0
0.0 0.0 0.0
0.0 0.0 0.0
0.0 0.0 0.0
0.0 0.0 0.0
0.0 0.0 0.0
0.0 0.0 0.0
0.0 0.0 0.0
0.0 0.0 0.0
0.0 0.0 0.0
0.0 0.0 0.0
0.0 0.0 0.0
0.0 0.0 0.0
0.0 0.0 0.0
0.0 0.0 0.0
0.0 0.0 0.0
0.0 0.0 0.0
0.0 0.0 0.0
0.0 0.0 0.0
0.0 0.0 0.0
0.0 0.0 0.0
0.0 0.0 0.0
0.0 0.0 0.0
0.0 0.0 0.0
0.0 0.0 0.0
0.0 0.0 0.0
0.0 0.0 0.0
0.0 0.0 0.0
0.0 0.0 0.0
0.0 0.0 0.0
0.0 0.0 0.0
0.0 0.0 0.0
0.0 0.0 0.0
0.0 0.0 0.0
0.0 0.0 0.0
0.0 0.0 0.0
0.0 0.0 0.0
0.0 0.0 0.0
0.0 0.0 0.0
0.0 0.0 0.0
0.0 0.0 0.0
0.0 0.0 0.0
0.0 0.0 0.0
0.0 0.0 0.0
0.0 0.0 0.0
0.0 0.0 0.0
0.0 0.0 0.0
0.0 0.0 0.0
0.0 0.0 0.0
0.0 0.0 0.0
0.0 0.0 0.0
0.0 0.0 0.0
0.0 0.0 0.0
0.0 0.0 0.0
0.0 0.0 0.0
1.0 0.0 0.0
1.0 0.0 0.0
1.0 0.0 0.0
1.0 0.0 0.0
1.0 0.0 0.0
1.0 0.0 0.0
1.0 0.0 0.0
1.0 0.0 0.0
1.0 0.0 0.0
1.0 0.0 0.0
1.0 0.0 0.0
1.0 0.0 0.0
1.0 0.0 0.0
1.0 0.0 0.0
1.0 0.0 0.0
1.0 0.0 0.0
1.0 0.0 0.0
1.0 0.0 0.0
1.0 0.0 0.0
1.0 0.0 0.0
1.0 0.0 0.0
1.0 0.0 0.0
1.0 0.0 0.0
1.0 0.0 0.0
1.0 0.0 0.0
1.0 0.0 0.0
1.0 0.0 0.0
1.0 0.0 0.0
1.0 0.0 0.0
1.0 0.0 0.0
1.0 0.0 0.0
1.0 0.0 0.0
1.0 0.0 0.0
1.0 0.0 0.0
1.0 0.0 0.0
1.0 0.0 0.0
1.0 0.0 0.0
1.0 0.0 0.0
1.0 0.0 0.0
1.0 0.0 0.0
1.0 0.0 0.0
1.0 0.0 0.0
1.0 0.0 0.0
1.0 0.0 0.0
1.0 0.0 0.0
1.0 0.0 0.0
1.0 0.0 0.0
1.0 0.0 0.0
1.0 0.0 0.0
1.0 0.0 0.0
1.0 0.0 0.0
1.0 0.0 0.0
1.0 0.0 0.0
1.0 0.0 0.0
1.0 0.0 0.0
1.0 0.0 0.0
1.0 0.0 0.0
1.0 0.0 0.0
1.0 0.0 0.0
1.0 0.0 0.0
1.0 0.0 0.0
1.0 0.0 0.0
1.0 0.0 0.0
1.0 0.0 0.0
1.0 0.0 0.0
1.0 0.0 0.0
1.0 0.0 0.0
1.0 0.0 0.0
1.0 0.0 0.0
1.0 0.0 0.0
1.0 0.0 0.0
1.0 0.0 0.0
1.0 0.0 0.0
1.0 0.0 0.0
1.0 0.0 0.0
1.0 0.0 0.0
1.0 0.0 0.0
1.0 0.0 0.0
1.0 0.0 0.0
0.0 0.0 0.0
0.0 0.0 0.0
0.0 0.0 0.0
0.0 0.0 0.0
0.0 0.0 0.0
0.0 0.0 0.0
0.0 0.0 0.0
0.0 0.0 0.0
0.0 0.0 0.0
0.0 0.0 0.0
0.0 0.0 0.0
0.0 0.0 0.0
0.0 0.0 0.0
0.0 0.0 0.0
0.0 0.0 0.0
0.0 0.0 0.0
0.0 0.0 0.0
0.0 0.0 0.0
0.0 0.0 0.0
0.0 0.0 0.0
0.0 0.0 0.0
0.0 0.0 0.0
0.0 0.0 0.0
0.0 0.0 0.0
0.0 0.0 0.0
0.0 0.0 0.0
0.0 0.0 0.0
0.0 0.0 0.0
0.0 0.0 0.0
0.0 0.0 0.0
0.0 0.0 0.0
0.0 0.0 0.0
0.0 0.0 0.0
0.0 0.0 0.0
0.0 0.0 0.0
0.0 0.0 0.0
0.0 0.0 0.0
0.0 0.0 0.0
0.0 0.0 0.0
0.0 0.0 0.0
0.0 0.0 0.0
0.0 0.0 0.0
0.0 0.0 0.0
0.0 0.0 0.0
0.0 0.0 0.0
0.0 0.0 0.0
0.0 0.0 0.0
0.0 0.0 0.0
0.0 0.0 0.0
0.0 0.0 0.0
0.0 0.0 0.0
0.0 0.0 0.0
0.0 0.0 0.0
0.0 0.0 0.0
0.0 0.0 0.0
0.0 0.0 0.0
0.0 0.0 0.0
0.0 0.0 0.0
0.0 0.0 0.0
0.0 0.0 0.0
0.0 0.0 0.0
0.0 0.0 0.0
0.0 0.0 0.0
0.0 0.0 0.0
0.0 0.0 0.0
0.0 0.0 0.0
0.0 0.0 0.0
0.0 0.0 0.0
0.0 0.0 0.0
0.0 0.0 0.0
0.0 0.0 0.0
0.0 0.0 0.0
0.0 0.0 0.0
0.0 0.0 0.0
0.0 0.0 0.0
0.0 0.0 0.0
0.0 0.0 0.0
0.0 0.0 0.0
0.0 0.0 0.0
-0.210019647175 0.0580896617144 0.0
-0.115897333142 -0.15405259737 0.0
-0.063232872317 0.227048881362 0.0
-0.111605069492 -0.0748169456659 0.0
-0.0903473668908 0.0649172316399 0.0
0.0727469770337 0.114086493603 0.0
-0.0736408844374 0.162975380557 0.0
-0.185131251113 -0.24219236081 0.0
-0.108653414034 -0.000928529780335 0.0
0.0386673714728 -0.316197820477 0.0
-0.0608077587154 0.241341346592 0.0
-0.0220973562447 -0.0235276399517 0.0
-0.0273276132721 0.0250722032237 0.0
0.27592437437 -0.00546636522456 0.0
-0.0402391523448 0.208805153136 0.0
0.10813311032 0.138618533434 0.0
-0.170036053221 -0.395751807196 0.0
-0.055276248279 -0.0977277205523 0.0
-0.0401338723293 0.0874340774651 0.0
-0.066482688102 0.0161637653932 0.0
-0.0669390424593 -0.0197288317606 0.0
-0.1517456606 0.0410045845421 0.0
-0.13156894652 0.176310740424 0.0
-0.227228762586 -0.096731232619 0.0
-0.159022992598 0.0482554576009 0.0
-0.103342805261 0.168763273157 0.0
-0.246004126953 -0.128095465629 0.0
-0.144202743524 0.110756842165 0.0
-0.176527924702 -0.013881720904 0.0
0.381188366695 0.0643126600971 0.0
-0.0238579235168 0.110566069895 0.0
-0.0788637061655 -0.234374351125 0.0
-0.0759380091784 -0.00356667068031 0.0
0.447100168061 -0.0607848946311 0.0
-0.0297500035332 0.206011136529 0.0
-0.0129150531161 -0.0297087181765 0.0
-0.0334990291644 0.0100403159613 0.0
-0.109821732586 -0.48909550668 0.0
0.158734765471 0.11624667514 0.0
-0.0304065692251 -0.0118622553919 0.0
-0.0154695601685 0.038399773984 0.0
0.0510970728207 0.0198807280044 0.0
-0.068654782895 0.214690758937 0.0
-0.147252706486 -0.140028440229 0.0
-0.117131192864 0.0333621783623 0.0
-0.0085668825516 0.182860975365 0.0
-0.223559281416 -0.259608726197 0.0
-0.0896713557859 0.112685776777 0.0
-0.123529750133 -0.0342942895352 0.0
0.0735432463918 -0.371427096098 0.0
-0.0810035515359 0.255798693069 0.0
-0.00236885377282 -0.00373237538781 0.0
-0.00508695270355 0.00582505190842 0.0
0.534825736495 0.0179075789845 0.0
-0.0151780167052 0.12884752755 0.0
-0.0289485314223 -0.0957670137452 0.0
-0.0502981864486 0.00362721931335 0.0
-0.137726396654 -0.337577305065 0.0
-0.0239655233687 0.211510932353 0.0
-0.0651742782914 -0.041269404756 0.0
-0.0536727525922 0.061776370879 0.0
0.0755821140355 -0.127748724073 0.0
-0.0557198328884 0.243907053867 0.0
-0.0589107330699 -0.0673007121661 0.0
-0.0629167835101 0.0350594939309 0.0
-0.167872536355 0.108745709622 0.0
-0.229162720508 -0.012661556247 0.0
-0.170330422242 0.121753274013 0.0
-0.218437450961 -0.0160778728744 0.0
-0.18530577445 -0.0780799861624 0.0
-0.0910028294779 0.205467770916 0.0
-0.172638847384 -0.0716632148888 0.0
-0.124583886874 0.0782932973477 0.0
0.628474297384 -0.00680896479627 0.0
-0.0115251972778 0.134136503819 0.0
-0.0110710061186 -0.0411451453098 0.0
-0.0355921870515 0.0043715357415 0.0
-0.0635024794538 -0.299775297091 0.0
-0.0366398645094 -0.00587754973769 0.0
0.420627478834 0.0523588394134 0.0
-0.0110367680674 0.0537355408361 0.0
0.412132228194 -0.11251784986 0.0
-0.0488067030759 0.229392450903 0.0
-0.00361417577803 -0.00873424939223 0.0
-0.013520904713 0.00632273225166 0.0
-0.0775714415609 -0.538218305661 0.0
-0.00911533423783 -0.00590671314658 0.0
0.106188193688 0.134390994761 0.0
-0.00643120151429 0.0145497035688 0.0
-0.0668628135735 0.119322106818 0.0
-0.118312739089 0.162640850467 0.0
-0.229991031167 -0.181368102538 0.0
-0.142645737249 0.00566801679395 0.0
0.212229780981 0.058109979496 0.0
-0.0485599881489 0.180896648431 0.0
-0.103052967296 -0.177287584098 0.0
-0.0833524307315 0.00841707567705 0.0
0.0884796308918 0.134334012016 0.0
-0.0553499576561 0.124757284119 0.0
-0.184331765295 -0.317427900548 0.0
-0.0861365489427 -0.014707863075 0.0
-0.191500680909 0.0572786517952 0.0
-0.191106349856 0.0178059865034 0.0
-0.198256998793 -0.0172152632902 0.0
-0.207553532002 0.020902554361 0.0
-0.000386077126605 -0.0013501537848 0.0
-0.000590702784426 -0.000717382001602 0.0
-0.00368629088937 0.00181151228801 0.0
-0.00106735557256 0.00113384264198 0.0
0.373258217488 -0.147618289354 0.0
0.0644796245425 -0.377271006955 0.0
-0.0682479915527 0.264795819297 0.0
-0.0620863928547 0.279932007234 0.0
-0.0022472017382 -0.00123690774168 0.0
-0.00132087442524 0.0030179273684 0.0
-0.0527704460312 -0.523188944769 0.0
0.114335340565 0.149256642569 0.0
-0.172497776885 0.0190077965194 0.0
-0.176571638799 0.0531377570269 0.0
-0.0883359993478 0.149016314 0.0
-0.0353709233424 0.154069618993 0.0
-0.0663627046762 0.177660443739 0.0
-0.244937985592 -0.161190609177 0.0
-0.238167816282 -0.215724117214 0.0
-0.240777233712 -0.179229782921 0.0
-0.131423057886 0.136933961291 0.0
-0.107011398095 0.141773957965 0.0
-0.119119504805 0.118354051169 0.0
-0.158010858159 -0.00385611608579 0.0
-0.138115630509 -0.0139471842776 0.0
-0.152522520124 -0.0298724321308 0.0
-0.153183397237 0.150209862367 0.0
-0.176620917452 0.119620310634 0.0
-0.151763080546 0.148788758635 0.0
-0.131397003251 0.14588666029 0.0
-0.124095111604 0.17341673608 0.0
-0.24131714183 -0.0610347315979 0.0
-0.232710255471 -0.0154845159181 0.0
-0.224898212603 -0.0547946001204 0.0
-0.245105601728 -0.110334223093 0.0
-0.241820033146 -0.075590847191 0.0
-0.001208767658 0.120000220688 0.0
0.0206895261973 0.147302462565 0.0
-0.0954666768429 0.16721251562 0.0
-0.0849215646874 0.142341483505 0.0
-0.213458238572 -0.214024592608 0.0
-0.22054605565 -0.261708820365 0.0
-0.12732357665 0.00208786581669 0.0
-0.118034831241 -0.0136010854378 0.0
-0.0582048127685 0.219939481348 0.0
-0.0630951401523 0.234139000283 0.0
-0.0498505791475 0.2323736603 0.0
0.132621360185 0.00326451241369 0.0
0.0488878447545 -0.0542584297915 0.0
0.178900069937 -0.0510249748231 0.0
-0.0859672732426 0.0243086286507 0.0
-0.0852851308802 0.0369915903292 0.0
-0.0668966317196 0.0250604903142 0.0
-0.0954144899248 -0.124872490206 0.0
-0.095009779532 -0.100797518549 0.0
-0.0589626885659 -0.0837033771541 0.0
-0.0600856035403 0.237285402078 0.0
-0.0737595907082 0.228198794369 0.0
-0.0353278782382 -0.141349797058 0.0
-0.0584350087695 -0.0701930583198 0.0
-0.0783998758846 0.0499234389879 0.0
-0.100794143536 0.051879524038 0.0
-0.0881901310296 -0.0765044894359 0.0
-0.126317331271 -0.0990007334621 0.0
-0.179147282771 -0.397533248431 0.0
-0.190751820796 -0.307125906871 0.0
-0.205245980722 -0.347667423798 0.0
0.0292544979387 0.176571779943 0.0
-0.0150995580079 0.199892692952 0.0
0.0337619279595 0.17015381182 0.0
-0.06750951066 -0.0299156634434 0.0
-0.0922562157672 -0.0428580291597 0.0
-0.089118242637 -0.0287280478531 0.0
-0.0477371144671 0.075707516238 0.0
-0.0702658578934 0.0845853275974 0.0
-0.0619535700456 0.0999413507007 0.0
-0.1692763973 0.0892127487511 0.0
-0.155859805502 0.0801264332779 0.0
0.653568084987 0.0202142973476 0.0
0.680535199219 0.0163044060899 0.0
-0.00586967865903 0.0552774241609 0.0
-0.00612599091354 0.0686515384979 0.0
-0.0229061510144 -0.144306155329 0.0
-0.0184813192984 -0.106539304148 0.0
-0.0384611767975 -0.00159247294601 0.0
-0.0413385571439 -0.000278717584774 0.0
-0.0211445273072 -0.165971817765 0.0
-0.0718461410036 -0.273209787907 0.0
-0.0304536459217 -0.00193557442597 0.0
-0.0482864003353 -0.00586596625996 0.0
0.670548902851 0.0179270035042 0.0
0.391528780038 0.0583881390162 0.0
-0.0040593457077 0.037749104394 0.0
-0.0160668770159 0.0753382613079 0.0
-0.229017588975 -0.14076278288 0.0
-0.1528097045 0.0228059679961 0.0
-0.183235153516 -0.212651076911 0.0
-0.127136748031 -0.236066403341 0.0
-0.0485607722486 0.211697073279 0.0
-0.0458387452064 0.224379284016 0.0
-0.117519913916 -0.0572882239205 0.0
-0.0885898115702 -0.0582682112879 0.0
-0.0913525548883 0.0841762103249 0.0
-0.0736272956339 0.0658332843752 0.0
-0.0955333580296 0.189353093956 0.0
-0.10990040713 0.19539666993 0.0
-0.133784131591 0.0946208522881 0.0
-0.141356059311 0.0671605463677 0.0
-0.182629286062 0.0921615479064 0.0
-0.157569736516 0.119518818631 0.0
-0.198751390395 0.0797363782324 0.0
-0.192945921939 0.091082969651 0.0
-0.219962288825 0.0230283285973 0.0
-0.221049796363 0.0310030072892 0.0
-0.131603965581 -0.334820784178 0.0
-0.117532591268 -0.377649392814 0.0
-0.0655038015242 -0.0111007681436 0.0
-0.0504946170938 -0.0116063449542 0.0
0.212305995968 0.101269419126 0.0
0.235203468455 0.0951014342855 0.0
-0.0325563227661 0.098667313747 0.0
-0.0231079307574 0.0725889638441 0.0
0.73444423172 -0.0150722243653 0.0
0.689918862537 -0.0267202547404 0.0
-0.00792915220918 0.1155880315 0.0
-0.0123377076553 0.136733700073 0.0
-0.00267435754084 -0.0135553452358 0.0
-0.00207071122103 -0.00864709407333 0.0
-0.0217496743484 0.0023968892426 0.0
-0.0169985222653 0.00272781979318 0.0
-0.0432727812113 -0.375945166406 0.0
-0.0369804151005 -0.303091130714 0.0
-0.0147306130671 -0.00317287680032 0.0
-0.0209360389675 -0.00314301956502 0.0
0.454666057877 0.0437761041253 0.0
0.531560161613 0.0326962903365 0.0
-0.00347487180261 0.0162966080752 0.0
-0.00393892022581 0.0231718771351 0.0
0.462413549842 0.036276664128 0.0
0.740745540342 0.00881406927052 0.0
-0.0187404280047 0.121302552811 0.0
-0.00461620597082 0.0727687831763 0.0
-0.0468438592916 -0.147376396093 0.0
-0.0110349065745 -0.0661145304108 0.0
-0.0569730350641 0.0013082089719 0.0
-0.0370984108995 0.000869311444576 0.0
-0.146778710431 -0.447783980089 0.0
-0.141231069106 -0.442996155828 0.0
0.116853619567 0.133827766783 0.0
0.0178769141641 0.180814243256 0.0
-0.0481318436146 -0.0179090930716 0.0
-0.0452278415998 -0.0256077870625 0.0
-0.0279449087265 0.0627561140957 0.0
-0.0337741756491 0.0528841736683 0.0
0.140829964614 0.0837374848427 0.0
0.268094386354 0.0673981340339 0.0
0.171487408617 0.0983488620828 0.0
-0.0602179923236 0.175261814683 0.0
-0.0383832586063 0.152269796406 0.0
-0.0503525780551 0.147005392123 0.0
-0.141648842337 -0.212254175341 0.0
-0.0971625386864 -0.203651396508 0.0
-0.142898087582 -0.256652966257 0.0
-0.0960895518629 0.00560872951367 0.0
-0.0765313471722 0.00175853410276 0.0
-0.0874784031156 -0.0032377659416 0.0
-0.164662064952 -0.00889178620163 0.0
-0.110085582621 -0.0306022489905 0.0
-0.0965977406607 0.0335618659287 0.0
-0.0917336941235 0.213536967138 0.0
-0.107988550561 0.197712480459 0.0
-0.200437769416 -0.0860958964821 0.0
-0.166742350037 -0.103918684342 0.0
-0.198258271386 -0.125698204144 0.0
-0.122565381705 0.0566989791812 0.0
-0.137985984498 0.0419135783024 0.0
0.229221378271 -0.15503565334 0.0
0.222796455731 -0.10261265076 0.0
0.0721415338493 -0.20970914991 0.0
-0.0546706649057 0.246499633019 0.0
-0.0477858727497 0.239823899422 0.0
-0.0569873309346 0.247064570768 0.0
-0.0187760942563 -0.0296610721556 0.0
-0.0330289464625 -0.0508766455992 0.0
-0.0366788109465 -0.0423413098047 0.0
-0.0324533908821 0.0180613919368 0.0
-0.0478567950432 0.0218119898858 0.0
-0.0440783482852 0.0311486469235 0.0
-0.149719380364 -0.116174113213 0.0
-0.0747347312212 0.217666169164 0.0
-0.14120440472 -0.0781342319101 0.0
-0.10830010364 0.0723836767357 0.0
-0.195697491602 0.0180617531917 0.0
-0.215146724049 -0.0429749353461 0.0
-0.228799234254 -0.111015581434 0.0
-0.201147719505 -0.0505793530669 0.0
-0.175278118944 -0.0430110550505 0.0
0.782608549195 0.00299151980148 0.0
-0.00352778551281 0.0745191322644 0.0
-0.00661636900107 -0.0401322927686 0.0
-0.031596631484 0.00129711867306 0.0
0.0896494071205 0.128983485368 0.0
0.0451515694051 0.155103275416 0.0
-0.187955285823 -0.287152717198 0.0
-0.211599248171 -0.310502291266 0.0
-0.0641188037717 0.139725363096 0.0
-0.0697174015919 0.122396530793 0.0
-0.0988816905625 -0.0103031859889 0.0
-0.101484497446 -0.0208903832746 0.0
0.427996813744 -0.0919229003809 0.0
0.659561508738 -0.0362637888922 0.0
-0.0392792148911 0.218875947461 0.0
-0.0178081733556 0.152531988415 0.0
-0.00695047436944 -0.0159808787761 0.0
-0.0011381872863 -0.00427768522652 0.0
-0.0213965517513 0.00842185438283 0.0
-0.0112437719519 0.00220924423046 0.0
-0.042316158209 -0.416057394786 0.0
-0.0932176874571 -0.52524704219 0.0
-0.00878719753103 -0.00220855044617 0.0
-0.0165209575003 -0.00887208902628 0.0
0.41814498667 0.0505525307436 0.0
0.121294552064 0.127576446496 0.0
-0.00229236388393 0.00949617365517 0.0
-0.0102303012445 0.0235592589134 0.0
-0.0346118665457 0.213199514758 0.0
0.345088247364 -0.0402434654164 0.0
-0.0502590266724 0.0147180138141 0.0
-0.0306052975278 -0.0600585958717 0.0
-0.0654756850763 -0.344213218281 0.0
-0.097359836167 -0.466351138872 0.0
-0.0412200331129 0.224617234553 0.0
-0.00449938985572 0.190259539738 0.0
-0.041280241956 -0.0341471814828 0.0
-0.0272915664377 -0.0193537351066 0.0
-0.0395142109641 0.0420360015806 0.0
-0.0231214087208 0.0345528586582 0.0
-0.000671559841544 -0.00220266003574 0.0
0.569958343506 -0.0621757623675 0.0
-0.0070130393752 0.00195131861479 0.0
-0.0329901972438 0.193901762941 0.0
-0.0494877838981 -0.479239864163 0.0
-0.00488733168665 -0.00161753713382 0.0
0.3100260909 0.0767619832033 0.0
-0.00169741191371 0.00546141550759 0.0
0.341904998797 0.0400423932539 0.0
-0.0317134979496 0.16279877027 0.0
-0.0652007190529 -0.146844324845 0.0
-0.0683324799024 0.00590963749723 0.0
-0.00340410413612 -0.00657636027368 0.0
-0.00994601699697 0.00691383962822 0.0
0.260791078881 -0.202888374397 0.0
-0.0749203671006 0.259266779549 0.0
-0.0452467693719 -0.507591579502 0.0
-0.00588674608587 -0.00555505245023 0.0
-0.00793490086324 0.191383174358 0.0
-0.00649810687311 0.0106365743125 0.0
-0.0421060201223 -0.233800086098 0.0
-0.0511898776633 0.237038627627 0.0
-0.0610076218497 -0.0533119519004 0.0
-0.0581764246161 0.0473498766547 0.0
-0.0379210513404 0.0790975782791 0.0
-0.109810919527 0.0801829721019 0.0
-0.102131955279 0.188524824749 0.0
-0.127082643411 0.173816595342 0.0
-0.20168662476 -0.167869205938 0.0
-0.132317380218 0.0210776035501 0.0
0.166416507908 0.110552902455 0.0
-0.0451142709624 0.123623168401 0.0
0.103096346533 0.137305885998 0.0
-0.0505460633724 0.109779235794 0.0
-0.151539434229 -0.304183222232 0.0
-0.0803767926442 -0.00966640565917 0.0
-0.181892980532 -0.348263645605 0.0
-0.0818036126607 -0.0177047868252 0.0
0.791548796758 -0.00598336232928 0.0
0.55174281202 -0.0222529384775 0.0
-0.00459953709409 0.0883206153874 0.0
-0.0177359264129 0.166207497237 0.0
0.304878779542 0.0752116624167 0.0
0.448230318438 -0.0080046518412 0.0
-0.0238483842371 0.17886099207 0.0
-0.0876546722089 -0.392854245065 0.0
-0.0130719492012 0.0474693708313 0.0
-0.0344173614542 -0.00853919313299 0.0
0.635851377135 0.0207465637769 0.0
-0.0248811824817 -0.213269735564 0.0
-0.00348641333982 0.0280899783391 0.0
-0.0249583020688 -0.00224422747771 0.0
-0.00263564860088 -0.0167654171892 0.0
-0.0123532218768 -0.0369481854853 0.0
-0.0235120747666 0.00154749739784 0.0
-0.0358824126861 0.00666199869236 0.0
-0.0272981227384 -0.0675056783001 0.0
-0.0497698065901 0.00917418459829 0.0
0.0459158247392 0.0825606628874 0.0
-0.0809483778047 0.18903021915 0.0
-0.1732329839 -0.192503564532 0.0
-0.11416720667 0.0135665246881 0.0
-0.126093809166 0.115324444569 0.0
-0.164428010251 0.0728649927736 0.0
-0.144187187407 0.14688352907 0.0
0.222660578593 -0.200049844697 0.0
-0.066192332015 0.252347464794 0.0
-0.0577332816111 -0.476064841856 0.0
-0.00989206708994 -0.0161325527526 0.0
-0.0232676903411 0.19930217428 0.0
-0.0200763138307 0.0132952357937 0.0
-0.0144620433287 -0.0124533472657 0.0
-0.0145042094709 0.0211580644002 0.0
0.235070464164 0.0306288020984 0.0
0.118815907449 0.0515117733187 0.0
-0.045672672893 0.196529346801 0.0
-0.0642343060267 0.20085162363 0.0
-0.127168436672 -0.167553816702 0.0
-0.081650522879 -0.138699737862 0.0
-0.0781790358 0.0134743620037 0.0
-0.0970536138691 0.0167643629 0.0
-0.0667336103155 0.200563019381 0.0
-0.211988723887 -0.164580570526 0.0
-0.111680151632 0.0956605876454 0.0
-0.146461584504 -0.0532704327374 0.0
0.0644921265457 -0.34957137993 0.0
-0.0741813291838 0.245200102523 0.0
-0.00872606382178 -0.0110519905765 0.0
-0.013644369895 0.0139589683539 0.0
-0.201952069966 0.0520205844424 0.0
0.585717036491 0.00353190124384 0.0
0.807643793232 -0.00135572861842 0.0
-0.0129475115858 0.133847495493 0.0
-0.00326610040822 0.0754457317476 0.0
0.390682992074 0.0154698828814 0.0
-0.027808188426 0.173999787496 0.0
-0.0181883523928 -0.0626724855383 0.0
-0.00381470955846 -0.0237966824712 0.0
-0.0432397816089 0.00452651484553 0.0
-0.0263160591153 0.00127966341001 0.0