# vtk DataFile Version 2.0
2D Simulation Python
ASCII
DATASET UNSTRUCTURED_GRID
FIELD FieldData 1
NODES 1 2 int
7905 15488

POINTS 7905 double
0.0 0.0 0.0
1.0 0.0 0.0
1.0 1.0 0.0
0.0 1.0 0.0
0.01249999999997639 0.0 0.0
0.02499999999995297 0.0 0.0
0.03749999999992721 0.0 0.0
0.04999999999989927 0.0 0.0
0.0624999999998716 0.0 0.0
0.07499999999985263 0.0 0.0
0.08749999999983366 0.0 0.0
0.09999999999981467 0.0 0.0
0.1124999999997956 0.0 0.0
0.1249999999997765 0.0 0.0
0.1374999999997401 0.0 0.0
0.1499999999997036 0.0 0.0
0.1624999999996672 0.0 0.0
0.1749999999996308 0.0 0.0
0.1874999999995943 0.0 0.0
0.1999999999995579 0.0 0.0
0.2124999999995214 0.0 0.0
0.224999999999485 0.0 0.0
0.2374999999994485 0.0 0.0
0.2499999999994121 0.0 0.0
0.2624999999993757 0.0 0.0
0.2749999999993393 0.0 0.0
0.2874999999993028 0.0 0.0
0.2999999999992664 0.0 0.0
0.3124999999992299 0.0 0.0
0.3249999999991935 0.0 0.0
0.3374999999991571 0.0 0.0
0.3499999999991207 0.0 0.0
0.3624999999990842 0.0 0.0
0.3749999999990478 0.0 0.0
0.3874999999990113 0.0 0.0
0.3999999999989749 0.0 0.0
0.4124999999989398 0.0 0.0
0.4249999999989048 0.0 0.0
0.4374999999988697 0.0 0.0
0.4499999999988346 0.0 0.0
0.4624999999987995 0.0 0.0
0.4749999999987644 0.0 0.0
0.4874999999987293 0.0 0.0
0.4999999999986943 0.0 0.0
0.5124999999987259 0.0 0.0
0.5249999999987575 0.0 0.0
0.5374999999987891 0.0 0.0
0.5499999999988205 0.0 0.0
0.5624999999988521 0.0 0.0
0.5749999999988837 0.0 0.0
0.5874999999989152 0.0 0.0
0.5999999999989468 0.0 0.0
0.6124999999989797 0.0 0.0
0.6249999999990127 0.0 0.0
0.6374999999990456 0.0 0.0
0.6499999999990784 0.0 0.0
0.6624999999991114 0.0 0.0
0.6749999999991443 0.0 0.0
0.6874999999991771 0.0 0.0
0.69999999999921 0.0 0.0
0.712499999999243 0.0 0.0
0.7249999999992759 0.0 0.0
0.7374999999993088 0.0 0.0
0.7499999999993416 0.0 0.0
0.7624999999993746 0.0 0.0
0.7749999999994075 0.0 0.0
0.7874999999994404 0.0 0.0
0.7999999999994734 0.0 0.0
0.8124999999995063 0.0 0.0
0.8249999999995392 0.0 0.0
0.8374999999995721 0.0 0.0
0.8499999999996051 0.0 0.0
0.862499999999638 0.0 0.0
0.8749999999996709 0.0 0.0
0.8874999999997039 0.0 0.0
0.8999999999997368 0.0 0.0
0.9124999999997697 0.0 0.0
0.9249999999998026 0.0 0.0
0.9374999999998355 0.0 0.0
0.9499999999998684 0.0 0.0
0.9624999999999013 0.0 0.0
0.9749999999999343 0.0 0.0
0.9874999999999672 0.0 0.0
1.0 0.01249999999997639 0.0
1.0 0.02499999999995297 0.0
1.0 0.03749999999992721 0.0
1.0 0.04999999999989927 0.0
1.0 0.0624999999998716 0.0
1.0 0.07499999999985263 0.0
1.0 0.08749999999983366 0.0
1.0 0.09999999999981467 0.0
1.0 0.1124999999997956 0.0
1.0 0.1249999999997765 0.0
1.0 0.1374999999997401 0.0
1.0 0.1499999999997036 0.0
1.0 0.1624999999996672 0.0
1.0 0.1749999999996308 0.0
1.0 0.1874999999995943 0.0
1.0 0.1999999999995579 0.0
1.0 0.2124999999995214 0.0
1.0 0.224999999999485 0.0
1.0 0.2374999999994485 0.0
1.0 0.2499999999994121 0.0
1.0 0.2624999999993757 0.0
1.0 0.2749999999993393 0.0
1.0 0.2874999999993028 0.0
1.0 0.2999999999992664 0.0
1.0 0.3124999999992299 0.0
1.0 0.3249999999991935 0.0
1.0 0.3374999999991571 0.0
1.0 0.3499999999991207 0.0
1.0 0.3624999999990842 0.0
1.0 0.3749999999990478 0.0
1.0 0.3874999999990113 0.0
1.0 0.3999999999989749 0.0
1.0 0.4124999999989398 0.0
1.0 0.4249999999989048 0.0
1.0 0.4374999999988697 0.0
1.0 0.4499999999988346 0.0
1.0 0.4624999999987995 0.0
1.0 0.4749999999987644 0.0
1.0 0.4874999999987293 0.0
1.0 0.4999999999986943 0.0
1.0 0.5124999999987259 0.0
1.0 0.5249999999987575 0.0
1.0 0.5374999999987891 0.0
1.0 0.5499999999988205 0.0
1.0 0.5624999999988521 0.0
1.0 0.5749999999988837 0.0
1.0 0.5874999999989152 0.0
1.0 0.5999999999989468 0.0
1.0 0.6124999999989797 0.0
1.0 0.6249999999990127 0.0
1.0 0.6374999999990456 0.0
1.0 0.6499999999990784 0.0
1.0 0.6624999999991114 0.0
1.0 0.6749999999991443 0.0
1.0 0.6874999999991771 0.0
1.0 0.69999999999921 0.0
1.0 0.712499999999243 0.0
1.0 0.7249999999992759 0.0
1.0 0.7374999999993088 0.0
1.0 0.7499999999993416 0.0
1.0 0.7624999999993746 0.0
1.0 0.7749999999994075 0.0
1.0 0.7874999999994404 0.0
1.0 0.7999999999994734 0.0
1.0 0.8124999999995063 0.0
1.0 0.8249999999995392 0.0
1.0 0.8374999999995721 0.0
1.0 0.8499999999996051 0.0
1.0 0.862499999999638 0.0
1.0 0.8749999999996709 0.0
1.0 0.8874999999997039 0.0
1.0 0.8999999999997368 0.0
1.0 0.9124999999997697 0.0
1.0 0.9249999999998026 0.0
1.0 0.9374999999998355 0.0
1.0 0.9499999999998684 0.0
1.0 0.9624999999999013 0.0
1.0 0.9749999999999343 0.0
1.0 0.9874999999999672 0.0
0.9874999999999439 1.0 0.0
0.9749999999998877 1.0 0.0
0.9624999999998541 1.0 0.0
0.9499999999998356 1.0 0.0
0.9374999999997805 1.0 0.0
0.9249999999996992 1.0 0.0
0.9124999999996414 1.0 0.0
0.8999999999995836 1.0 0.0
0.8874999999996454 1.0 0.0
0.8749999999997078 1.0 0.0
0.8624999999997771 1.0 0.0
0.8499999999998515 1.0 0.0
0.837499999999895 1.0 0.0
0.8249999999999216 1.0 0.0
0.8124999999999571 1.0 0.0
0.7999999999999998 1.0 0.0
0.7875000000000937 1.0 0.0
0.77500000000021 1.0 0.0
0.7625000000002968 1.0 0.0
0.7500000000003858 1.0 0.0
0.7375000000004739 1.0 0.0
0.7250000000005448 1.0 0.0
0.7125000000005861 1.0 0.0
0.7000000000006934 1.0 0.0
0.6875000000008109 1.0 0.0
0.6750000000009306 1.0 0.0
0.6625000000010091 1.0 0.0
0.6500000000010593 1.0 0.0
0.6375000000011386 1.0 0.0
0.6250000000012101 1.0 0.0
0.612500000001312 1.0 0.0
0.6000000000013869 1.0 0.0
0.5875000000014601 1.0 0.0
0.5750000000015277 1.0 0.0
0.5625000000016089 1.0 0.0
0.5500000000016854 1.0 0.0
0.5375000000017889 1.0 0.0
0.5250000000018821 1.0 0.0
0.5125000000019756 1.0 0.0
0.5000000000020587 1.0 0.0
0.4875000000020093 1.0 0.0
0.4750000000019601 1.0 0.0
0.4625000000019108 1.0 0.0
0.4500000000018616 1.0 0.0
0.4375000000018123 1.0 0.0
0.425000000001763 1.0 0.0
0.4125000000017136 1.0 0.0
0.4000000000016644 1.0 0.0
0.3875000000016123 1.0 0.0
0.3750000000015603 1.0 0.0
0.3625000000015083 1.0 0.0
0.3500000000014563 1.0 0.0
0.3375000000014042 1.0 0.0
0.3250000000013522 1.0 0.0
0.3125000000013003 1.0 0.0
0.3000000000012483 1.0 0.0
0.2875000000011962 1.0 0.0
0.2750000000011442 1.0 0.0
0.2625000000010922 1.0 0.0
0.2500000000010403 1.0 0.0
0.2375000000009883 1.0 0.0
0.2250000000009362 1.0 0.0
0.2125000000008842 1.0 0.0
0.2000000000008322 1.0 0.0
0.1875000000007802 1.0 0.0
0.1750000000007281 1.0 0.0
0.1625000000006761 1.0 0.0
0.1500000000006241 1.0 0.0
0.1375000000005721 1.0 0.0
0.12500000000052 1.0 0.0
0.112500000000468 1.0 0.0
0.100000000000416 1.0 0.0
0.08750000000036395 1.0 0.0
0.07500000000031193 1.0 0.0
0.06250000000026001 1.0 0.0
0.05000000000020799 1.0 0.0
0.03750000000015596 1.0 0.0
0.02500000000010394 1.0 0.0
0.01250000000005191 1.0 0.0
0.0 0.9874999999999439 0.0
0.0 0.9749999999998877 0.0
0.0 0.9624999999998541 0.0
0.0 0.9499999999998356 0.0
0.0 0.9374999999997805 0.0
0.0 0.9249999999996992 0.0
0.0 0.9124999999996414 0.0
0.0 0.8999999999995836 0.0
0.0 0.8874999999996454 0.0
0.0 0.8749999999997078 0.0
0.0 0.8624999999997771 0.0
0.0 0.8499999999998515 0.0
0.0 0.837499999999895 0.0
0.0 0.8249999999999216 0.0
0.0 0.8124999999999571 0.0
0.0 0.7999999999999998 0.0
0.0 0.7875000000000937 0.0
0.0 0.77500000000021 0.0
0.0 0.7625000000002968 0.0
0.0 0.7500000000003858 0.0
0.0 0.7375000000004739 0.0
0.0 0.7250000000005448 0.0
0.0 0.7125000000005861 0.0
0.0 0.7000000000006934 0.0
0.0 0.6875000000008109 0.0
0.0 0.6750000000009306 0.0
0.0 0.6625000000010091 0.0
0.0 0.6500000000010593 0.0
0.0 0.6375000000011386 0.0
0.0 0.6250000000012101 0.0
0.0 0.612500000001312 0.0
0.0 0.6000000000013869 0.0
0.0 0.5875000000014601 0.0
0.0 0.5750000000015277 0.0
0.0 0.5625000000016089 0.0
0.0 0.5500000000016854 0.0
0.0 0.5375000000017889 0.0
0.0 0.5250000000018821 0.0
0.0 0.5125000000019756 0.0
0.0 0.5000000000020587 0.0
0.0 0.4875000000020093 0.0
0.0 0.4750000000019601 0.0
0.0 0.4625000000019108 0.0
0.0 0.4500000000018616 0.0
0.0 0.4375000000018123 0.0
0.0 0.425000000001763 0.0
0.0 0.4125000000017136 0.0
0.0 0.4000000000016644 0.0
0.0 0.3875000000016123 0.0
0.0 0.3750000000015603 0.0
0.0 0.3625000000015083 0.0
0.0 0.3500000000014563 0.0
0.0 0.3375000000014042 0.0
0.0 0.3250000000013522 0.0
0.0 0.3125000000013003 0.0
0.0 0.3000000000012483 0.0
0.0 0.2875000000011962 0.0
0.0 0.2750000000011442 0.0
0.0 0.2625000000010922 0.0
0.0 0.2500000000010403 0.0
0.0 0.2375000000009883 0.0
0.0 0.2250000000009362 0.0
0.0 0.2125000000008842 0.0
0.0 0.2000000000008322 0.0
0.0 0.1875000000007802 0.0
0.0 0.1750000000007281 0.0
0.0 0.1625000000006761 0.0
0.0 0.1500000000006241 0.0
0.0 0.1375000000005721 0.0
0.0 0.12500000000052 0.0
0.0 0.112500000000468 0.0
0.0 0.100000000000416 0.0
0.0 0.08750000000036395 0.0
0.0 0.07500000000031193 0.0
0.0 0.06250000000026001 0.0
0.0 0.05000000000020799 0.0
0.0 0.03750000000015596 0.0
0.0 0.02500000000010394 0.0
0.0 0.01250000000005191 0.0
0.499547313951317 0.4984202829398231 0.0
0.7057142553715264 0.7049957919913439 0.0
0.2942617789825218 0.706558362574613 0.0
0.7052750732513358 0.29408370064617073 0.0
0.2941161372558304 0.29425664999463297 0.0
0.49473409022248005 0.7865288457870021 0.0
0.21400675843102512 0.49559804899934157 0.0
0.7879606576561358 0.5053778129282838 0.0
0.505369301426186 0.2119891966328729 0.0
0.8286074034533916 0.8287576993256224 0.0
0.17122528584787128 0.8286011816233976 0.0
0.8287577004551061 0.17139259539200086 0.0
0.17140751986106711 0.17123186221929698 0.0
0.6412438345717256 0.8516520873564006 0.0
0.14868333985619164 0.6419476520576217 0.0
0.36001439100831745 0.8471882363166383 0.0
0.8472916681795735 0.639858398754968 0.0
0.8516551147624887 0.3587551765143301 0.0
0.1529024464427883 0.36006180552290556 0.0
0.3587547979315107 0.148343271772372 0.0
0.6398585806283599 0.15270777331315408 0.0
0.5665851234669081 0.6415505082226679 0.0
0.3688065763014604 0.5781443560211958 0.0
0.6448511073779454 0.4469929790001165 0.0
0.43335085497228876 0.35323599965884955 0.0
0.42653529248703315 0.6555720715037009 0.0
0.6657620768186652 0.5502649260729648 0.0
0.3566111211511165 0.42874186251021185 0.0
0.5447859278293945 0.34262223816401394 0.0
0.4594948214297615 0.8920313032464312 0.0
[...]
POINT_DATA 7905
VECTORS vector double
0.0 0.0 0.0
0.0 0.0 0.0
0.0 0.0 0.0
0.0 0.0 0.0
0.0 0.0 0.0
0.0 0.0 0.0
0.0 0.0 0.0
0.0 0.0 0.0
0.0 0.0 0.0
0.0 0.0 0.0
0.0 0.0 0.0
0.0 0.0 0.0
0.0 0.0 0.0
0.0 0.0 0.0
0.0 0.0 0.0
0.0 0.0 0.0
0.0 0.0 0.0
0.0 0.0 0.0
0.0 0.0 0.0
0.0 0.0 0.0
0.0 0.0 0.0
0.0 0.0 0.0
0.0 0.0 0.0
0.0 0.0 0.0
0.0 0.0 0.0
0.0 0.0 0.0
0.0 0.0 0.0
0.0 0.0 0.0
0.0 0.0 0.0
0.0 0.0 0.0
0.0 0.0 0.0
0.0 0.0 0.0
0.0 0.0 0.0
0.0 0.0 0.0
0.0 0.0 0.0
0.0 0.0 0.0
0.0 0.0 0.0
0.0 0.0 0.0
0.0 0.0 0.0
0.0 0.0 0.0
0.0 0.0 0.0
0.0 0.0 0.0
0.0 0.0 0.0
0.0 0.0 0.0
0.0 0.0 0.0
0.0 0.0 0.0
0.0 0.0 0.0
0.0 0.0 0.0
0.0 0.0 0.0
0.0 0.0 0.0
0.0 0.0 0.0
0.0 0.0 0.0
0.0 0.0 0.0
0.0 0.0 0.0
0.0 0.0 0.0
0.0 0.0 0.0
0.0 0.0 0.0
0.0 0.0 0.0
0.0 0.0 0.0
0.0 0.0 0.0
0.0 0.0 0.0
0.0 0.0 0.0
0.0 0.0 0.0
0.0 0.0 0.0
0.0 0.0 0.0
0.0 0.0 0.0
0.0 0.0 0.0
0.0 0.0 0.0
0.0 0.0 0.0
0.0 0.0 0.0
0.0 0.0 0.0
0.0 0.0 0.0
0.0 0.0 0.0
0.0 0.0 0.0
0.0 0.0 0.0
0.0 0.0 0.0
0.0 0.0 0.0
0.0 0.0 0.0
0.0 0.0 0.0
0.0 0.0 0.0
0.0 0.0 0.0
0.0 0.0 0.0
0.0 0.0 0.0
0.0 0.0 0.0
0.0 0.0 0.0
0.0 0.0 0.0
0.0 0.0 0.0
0.0 0.0 0.0
0.0 0.0 0.0
0.0 0.0 0.0
0.0 0.0 0.0
0.0 0.0 0.0
0.0 0.0 0.0
0.0 0.0 0.0
0.0 0.0 0.0
0.0 0.0 0.0
0.0 0.0 0.0
0.0 0.0 0.0
0.0 0.0 0.0
0.0 0.0 0.0
0.0 0.0 0.0
0.0 0.0 0.0
0.0 0.0 0.0
0.0 0.0 0.0
0.0 0.0 0.0
0.0 0.0 0.0
0.0 0.0 0.0
0.0 0.0 0.0
0.0 0.0 0.0
0.0 0.0 0.0
0.0 0.0 0.0
0.0 0.0 0.0
0.0 0.0 0.0
0.0 0.0 0.0
0.0 0.0 0.0
0.0 0.0 0.0
0.0 0.0 0.0
0.0 0.0 0.0
0.0 0.0 0.0
0.0 0.0 0.0
0.0 0.0 0.0
0.0 0.0 0.0
0.0 0.0 0.0
0.0 0.0 0.0
0.0 0.0 0.0
0.0 0.0 0.0
0.0 0.0 0.0
0.0 0.0 0.0
0.0 0.0 0.0
0.0 0.0 0.0
0.0 0.0 0.0
0.0 0.0 0.0
0.0 0.0 0.0
0.0 0.0 0.0
0.0 0.0 0.0
0.0 0.0 0.0
0.0 0.0 0.0
0.0 0.0 0.0
0.0 0.0 0.0
0.0 0.0 0.0
0.0 0.0 0.0
0.0 0.0 0.0
0.0 0.0 0.0
0.0 0.0 0.0
0.0 0.0 0.0
0.0 0.0 0.0
0.0 0.0 0.0
0.0 0.0 0.0
0.0 0.0 0.0
0.0 0.0 0.0
0.0 0.0 0.0
0.0 0.0 0.0
0.0 0.0 0.0
0.0 0.0 0.0
0.0 0.0 0.0
0.0 0.0 0.0
0.0 0.0 0.0
0.0 0.0 0.0
0.0 0.0 0.0
0.0 0.0 0.0
0.0 0.0 0.0
0.0 0.0 0.0
1.0 0.0 0.0
1.0 0.0 0.0
1.0 0.0 0.0
1.0 0.0 0.0
1.0 0.0 0.0
1.0 0.0 0.0
1.0 0.0 0.0
1.0 0.0 0.0
1.0 0.0 0.0
1.0 0.0 0.0
1.0 0.0 0.0
1.0 0.0 0.0
1.0 0.0 0.0
1.0 0.0 0.0
1.0 0.0 0.0
1.0 0.0 0.0
1.0 0.0 0.0
1.0 0.0 0.0
1.0 0.0 0.0
1.0 0.0 0.0
1.0 0.0 0.0
1.0 0.0 0.0
1.0 0.0 0.0
1.0 0.0 0.0
1.0 0.0 0.0
1.0 0.0 0.0
1.0 0.0 0.0
1.0 0.0 0.0
1.0 0.0 0.0
1.0 0.0 0.0
1.0 0.0 0.0
1.0 0.0 0.0
1.0 0.0 0.0
1.0 0.0 0.0
1.0 0.0 0.0
1.0 0.0 0.0
1.0 0.0 0.0
1.0 0.0 0.0
1.0 0.0 0.0
1.0 0.0 0.0
1.0 0.0 0.0
1.0 0.0 0.0
1.0 0.0 0.0
1.0 0.0 0.0
1.0 0.0 0.0
1.0 0.0 0.0
1.0 0.0 0.0
1.0 0.0 0.0
1.0 0.0 0.0
1.0 0.0 0.0
1.0 0.0 0.0
1.0 0.0 0.0
1.0 0.0 0.0
1.0 0.0 0.0
1.0 0.0 0.0
1.0 0.0 0.0
1.0 0.0 0.0
1.0 0.0 0.0
1.0 0.0 0.0
1.0 0.0 0.0
1.0 0.0 0.0
1.0 0.0 0.0
1.0 0.0 0.0
1.0 0.0 0.0
1.0 0.0 0.0
1.0 0.0 0.0
1.0 0.0 0.0
1.0 0.0 0.0
1.0 0.0 0.0
1.0 0.0 0.0
1.0 0.0 0.0
1.0 0.0 0.0
1.0 0.0 0.0
1.0 0.0 0.0
1.0 0.0 0.0
1.0 0.0 0.0
1.0 0.0 0.0
1.0 0.0 0.0
1.0 0.0 0.0
0.0 0.0 0.0
0.0 0.0 0.0
0.0 0.0 0.0
0.0 0.0 0.0
0.0 0.0 0.0
0.0 0.0 0.0
0.0 0.0 0.0
0.0 0.0 0.0
0.0 0.0 0.0
0.0 0.0 0.0
0.0 0.0 0.0
0.0 0.0 0.0
0.0 0.0 0.0
0.0 0.0 0.0
0.0 0.0 0.0
0.0 0.0 0.0
0.0 0.0 0.0
0.0 0.0 0.0
0.0 0.0 0.0
0.0 0.0 0.0
0.0 0.0 0.0
0.0 0.0 0.0
0.0 0.0 0.0
0.0 0.0 0.0
0.0 0.0 0.0
0.0 0.0 0.0
0.0 0.0 0.0
0.0 0.0 0.0
0.0 0.0 0.0
0.0 0.0 0.0
0.0 0.0 0.0
0.0 0.0 0.0
0.0 0.0 0.0
0.0 0.0 0.0
0.0 0.0 0.0
0.0 0.0 0.0
0.0 0.0 0.0
0.0 0.0 0.0
0.0 0.0 0.0
0.0 0.0 0.0
0.0 0.0 0.0
0.0 0.0 0.0
0.0 0.0 0.0
0.0 0.0 0.0
0.0 0.0 0.0
0.0 0.0 0.0
0.0 0.0 0.0
0.0 0.0 0.0
0.0 0.0 0.0
0.0 0.0 0.0
0.0 0.0 0.0
0.0 0.0 0.0
0.0 0.0 0.0
0.0 0.0 0.0
0.0 0.0 0.0
0.0 0.0 0.0
0.0 0.0 0.0
0.0 0.0 0.0
0.0 0.0 0.0
0.0 0.0 0.0
0.0 0.0 0.0
0.0 0.0 0.0
0.0 0.0 0.0
0.0 0.0 0.0
0.0 0.0 0.0
0.0 0.0 0.0
0.0 0.0 0.0
0.0 0.0 0.0
0.0 0.0 0.0
0.0 0.0 0.0
0.0 0.0 0.0
0.0 0.0 0.0
0.0 0.0 0.0
0.0 0.0 0.0
0.0 0.0 0.0
0.0 0.0 0.0
0.0 0.0 0.0
0.0 0.0 0.0
0.0 0.0 0.0
-0.0714214809941 0.00722837753972 0.0
-0.147304591526 -0.0650789262243 0.0
-0.104730758522 0.0937878093979 0.0
-0.0331744281083 -0.0219571027031 0.0
-0.0306324371474 0.0219116084856 0.0
-0.115908450493 0.0328850062893 0.0
-0.0422853278213 0.0630955284647 0.0
-0.0576181810956 -0.0742151523619 0.0
-0.0387030598155 0.000459477437971 0.0
-0.136253391118 -0.198824297541 0.0
-0.109498573226 0.186219801988 0.0
-0.0143858821796 -0.0127466207086 0.0
-0.013610600547 0.0119469699339 0.0
0.00150793762033 0.0029523214949 0.0
-0.0481934702854 0.113893917602 0.0
-0.0474226884597 0.0608598840164 0.0
-0.0886800553329 -0.149375192004 0.0
-0.0197023582578 -0.0409692848636 0.0
-0.0179646273526 0.0377549921838 0.0
-0.0285433450065 0.00579506773683 0.0
-0.0299900260666 -0.00560978617317 0.0
-0.112329827304 -0.00339635680656 0.0
-0.0893826543387 0.0484384096808 0.0
-0.0686282435737 -0.0282545481747 0.0
-0.0524733827721 0.0121240810398 0.0
-0.103772078496 0.0421656862232 0.0
-0.0832884255247 -0.0435773929918 0.0
-0.0564769080383 0.0305082840591 0.0
-0.0534031602722 -0.00435060070414 0.0
0.161831058822 0.0239051007011 0.0
-0.0149048544598 0.0529040709307 0.0
-0.0299175794768 -0.0880063355419 0.0
-0.0295695365102 -0.000696491171861 0.0
0.237342962043 -0.0230613006899 0.0
-0.0464367104723 0.156008996773 0.0
-0.00753167784469 -0.0208017506508 0.0
-0.0170875797731 0.00421590372298 0.0
-0.113539800298 -0.250983043546 0.0
0.0914182125229 0.0777239363348 0.0
-0.0183489008156 -0.00449522012298 0.0
-0.00724315019378 0.0197599544329 0.0
-0.152679519542 -0.00230611398131 0.0
-0.0785379692075 0.0839307177379 0.0
-0.0476596273484 -0.0411633049379 0.0
-0.0416395052396 0.0103611053961 0.0
-0.131840311914 0.0602861617625 0.0
-0.121958013803 -0.0881138405878 0.0
-0.0398618442601 0.0388842460006 0.0
-0.0433079787578 -0.00881940000873 0.0
-0.0118575251325 -0.328731608081 0.0
-0.083697053282 0.25403635295 0.0
-0.00372545745403 -0.00368789773617 0.0
-0.00353037449091 0.00344272680781 0.0
0.310190222145 0.0092207821978 0.0
-0.0141931437128 0.0718358695489 0.0
-0.010000216931 -0.0461172001584 0.0
-0.0231958917018 0.00119511604483 0.0
-0.178530321625 -0.151414972261 0.0
-0.12196712912 0.110111397325 0.0
-0.0282056976235 -0.0137371934122 0.0
-0.0221423433941 0.0248529684961 0.0
-0.142311343192 -0.0538198831507 0.0
-0.0964726161967 0.136359283119 0.0
-0.0236030507948 -0.026287679829 0.0
-0.0262133328724 0.0132363552166 0.0
-0.109529973211 0.0182047005562 0.0
-0.101759152794 -0.014149310317 0.0
-0.0755934934954 0.0285710892122 0.0
-0.0683642505644 -0.00814591913885 0.0
-0.133196265317 -0.0371838647746 0.0
-0.0960378369757 0.0656664492639 0.0
-0.0507134481432 -0.0192196770142 0.0
-0.0396783147133 0.0231437330699 0.0
0.360022860719 0.00178920856901 0.0
-0.0138611818528 0.0891201731876 0.0
-0.00459268903902 -0.026956061177 0.0
-0.016210177502 0.00159090675766 0.0
-0.0258470099638 -0.123506273911 0.0
-0.0182295879841 -0.00165648384298 0.0
0.273862653235 0.0250315404522 0.0
-0.00499769997609 0.0272346034544 0.0
0.224023630966 -0.0802841906117 0.0
-0.0603533592231 0.215336629378 0.0
-0.0036023947324 -0.00921567424156 0.0
-0.00798000361929 0.00311000448808 0.0
-0.120117063451 -0.383795178571 0.0
-0.00841083668626 -0.00335662354699 0.0
0.0710400506762 0.118998191214 0.0
-0.00348383393933 0.00871690037513 0.0
-0.134454203973 0.0238656890536 0.0
-0.0624224773506 0.0508471613123 0.0
-0.0625682165085 -0.0528750673283 0.0
-0.0403040235957 0.00177095023915 0.0
-0.0545150991224 0.0196780855026 0.0
-0.0350342404821 0.0832578653968 0.0
-0.0280330029708 -0.0618029884557 0.0
-0.0301194653013 0.00305777193997 0.0
-0.0666046516601 0.0468216570688 0.0
-0.0158919272038 0.0502514239293 0.0
-0.0334767763914 -0.104834867304 0.0
-0.0186054730869 -0.00351006758241 0.0
-0.0658384926011 0.0113425353878 0.0
-0.0602441446393 0.00232076323369 0.0
-0.0597795919567 -0.00643178547533 0.0
-0.0673863781238 0.00128948499547 0.0
-0.00107027773855 -0.00210777484872 0.0
-0.000569079464278 -0.000563991073629 0.0
-0.00197305089949 0.000977458399614 0.0
-0.000528158567612 0.000522696049579 0.0
0.325030868347 -0.139923648776 0.0
0.0385646161935 -0.363473095799 0.0
-0.0677601380235 0.271017212168 0.0
-0.0582592001769 0.283674842486 0.0
-0.00212226010258 -0.00105795753906 0.0
-0.00101842677456 0.00197951877804 0.0
-0.082924239881 -0.467682320994 0.0
0.120574014981 0.150052947641 0.0
-0.0541813760089 0.00392154949773 0.0
-0.0590249550367 0.0119669518132 0.0
-0.125172131951 0.0339891537974 0.0
-0.132538777404 0.0403779912328 0.0
-0.12508969175 0.0493810108957 0.0
-0.0836782463967 -0.0495371278867 0.0
-0.0852536069569 -0.0662977677948 0.0
-0.103467960955 -0.0598421840702 0.0
-0.0584991140617 0.0401176423372 0.0
-0.0498973133424 0.0463278850894 0.0
-0.0488247464336 0.0363719723926 0.0
-0.048684829654 -0.00111804520937 0.0
-0.0441456582066 -0.00326829203164 0.0
-0.047072156889 -0.00768364343261 0.0
-0.0824966839074 0.0377939473556 0.0
-0.0888969343961 0.0246396806781 0.0
-0.0972725340533 0.03400657814 0.0
-0.112071014321 0.0313637115895 0.0
-0.103660687629 0.0444726051793 0.0
-0.0820056094099 -0.0223750552082 0.0
-0.0801661851134 -0.0109334240144 0.0
-0.0687676448593 -0.0176935901585 0.0
-0.0819907303543 -0.0350055390443 0.0
-0.0972631217794 -0.0299708678738 0.0
-0.135360722029 0.0290030787971 0.0
-0.12713705266 0.0435478456745 0.0
-0.0531654511649 0.0584692916706 0.0
-0.0412387643719 0.0512603014972 0.0
-0.0661705671696 -0.0629879640485 0.0
-0.0775312645642 -0.0811017588214 0.0
-0.0421688658219 0.00114503547947 0.0
-0.0401997383495 -0.00303295572293 0.0
-0.0639372487686 0.103764001609 0.0
-0.0855020067598 0.109864126987 0.0
-0.0708242207526 0.127861953407 0.0
-0.106170230824 0.000798543849122 0.0
-0.148697800411 -0.0231068867473 0.0
-0.0780839170121 -0.0160512916283 0.0
-0.0334985200483 0.0082453585226 0.0
-0.0327788694032 0.012632945251 0.0
-0.0281510925593 0.0091489419008 0.0
-0.0307867709678 -0.0430166805619 0.0
-0.0318122381905 -0.0335958670933 0.0
-0.0221260542744 -0.0337979198617 0.0
-0.10713642717 0.11265131786 0.0
-0.0974879278212 0.0925739366502 0.0
-0.174126412419 -0.0608460843871 0.0
-0.164040745187 -0.0340657952901 0.0
-0.0302219176888 0.017678392247 0.0
-0.0366168593326 0.0167413059575 0.0
-0.0312266211157 -0.0250253480772 0.0
-0.0395030207234 -0.0291753648625 0.0
-0.136509902288 -0.162693962019 0.0
-0.145973689219 -0.118999963571 0.0
-0.10813662214 -0.124800671177 0.0
-0.0988931492266 0.0847799752796 0.0
-0.126166879359 0.0836070160892 0.0
-0.111859762058 0.0665644592054 0.0
-0.0297593565288 -0.00915977773393 0.0
-0.0346635057816 -0.0122925913283 0.0
-0.034556699351 -0.00781958489476 0.0
-0.0202656540207 0.0314249678595 0.0
-0.0284807535672 0.031501834219 0.0
-0.0266776654433 0.0388912118473 0.0
-0.0621985347055 0.0215835570207 0.0
-0.0550771854968 0.0207609929968 0.0
0.530520609056 0.0074703447177 0.0
0.533555090592 0.00631677925741 0.0
-0.00331011629182 0.0288536087469 0.0
-0.00417903217311 0.0366139115141 0.0
-0.00843955387863 -0.0620187525353 0.0
-0.0064011538473 -0.0489778029479 0.0
-0.0164792239237 -0.000360737555552 0.0
-0.0172289141928 -2.04209592128e-05 0.0
-0.00883076228954 -0.0710230448343 0.0
-0.0284294273581 -0.106614710392 0.0
-0.0133976649171 -0.000497488317801 0.0
-0.0236097396075 -0.0014986116125 0.0
0.581695118615 0.0075293374731 0.0
0.242614295202 0.0241131194155 0.0
-0.00203993099314 0.0200263194083 0.0
-0.00814942534316 0.0369534864913 0.0
-0.0694094839115 -0.0404445186038 0.0
-0.0486887137067 0.00588517622332 0.0
-0.148323065163 -0.0823153925782 0.0
-0.174195155114 -0.0995865305156 0.0
-0.124198393716 0.0800423421742 0.0
-0.123158639769 0.102401115827 0.0
-0.0390740450416 -0.0158397407432 0.0
-0.0325762160398 -0.0179942189144 0.0
-0.0350588828817 0.0285640625299 0.0
-0.0286842290504 0.0239915414732 0.0
-0.111673926039 0.0538336845619 0.0
-0.0974130003183 0.0583789573129 0.0
-0.0492589692225 0.0271439632523 0.0
-0.0484305914361 0.0185071499776 0.0
-0.0699721890704 0.0202651722287 0.0
-0.0651215559228 0.0307880636177 0.0
-0.0912015086248 0.0113075696124 0.0
-0.0795692946146 0.0174075203856 0.0
-0.076221112869 -0.000635644166646 0.0
-0.0881907520396 -0.00150865723758 0.0
-0.0520330768447 -0.121402884017 0.0
-0.0578933459385 -0.148653783244 0.0
-0.0296293372966 -0.00285828020854 0.0
-0.0252833846567 -0.00334196991057 0.0
0.0314970033255 0.0404398390111 0.0
0.094304252617 0.0445378026615 0.0
-0.0159634295602 0.0445253676631 0.0
-0.0107375155368 0.0342746675452 0.0
0.599974502983 -0.00481669095026 0.0
0.57377284447 -0.0128989881433 0.0
-0.0114890726251 0.0932777588571 0.0
-0.017527946571 0.121817149276 0.0
-0.0019029950682 -0.0134030859304 0.0
-0.00177537094259 -0.010138786234 0.0
-0.0102550698186 0.000993987653791 0.0
-0.00841567669771 0.0011792255799 0.0
-0.0435263064842 -0.214538964247 0.0
-0.0274272781442 -0.148306643107 0.0
-0.00912584102136 -0.00128492424207 0.0
-0.011219366938 -0.001071386062 0.0
0.430373509932 0.0330330069984 0.0
0.486904377621 0.020840476647 0.0
-0.00174388956503 0.00977998943739 0.0
-0.00188574551189 0.0130894730805 0.0
0.246167451466 0.014143245104 0.0
0.589392855189 0.0042590594254 0.0
-0.0139595753869 0.0624686400753 0.0
-0.00407829664837 0.0411559422839 0.0
-0.0154139759431 -0.0619185675912 0.0
-0.00385803861976 -0.034845460513 0.0
-0.0259316753854 0.000569010428179 0.0
-0.0153769994569 0.000246413341087 0.0
-0.105652533282 -0.193044833232 0.0
-0.165071241192 -0.215271558048 0.0
-0.00241249178878 0.0720291271241 0.0
-0.0813401920951 0.108134791 0.0
-0.0249188725367 -0.00577064012664 0.0
-0.0237043124537 -0.00924463139417 0.0
-0.0124255470198 0.0290517914442 0.0
-0.0147745074786 0.0238637818107 0.0
-0.0863859448197 0.025227434956 0.0
0.0255470125461 0.0235284710931 0.0
-0.050980737412 0.0329744574263 0.0
-0.0407808745125 0.0740762312239 0.0
-0.0263518065527 0.0709667368189 0.0
-0.0293713937484 0.0630877639175 0.0
-0.0425992159174 -0.0682178232186 0.0
-0.0304117992324 -0.0731386246705 0.0
-0.0454909821255 -0.0851826990602 0.0
-0.0362277618361 0.00227749522373 0.0
-0.0321806939954 0.00098366181077 0.0
-0.0347003274592 -0.000292962212945 0.0
-0.130887837886 -0.0176231594257 0.0
-0.150719375554 -0.0233008070028 0.0
-0.142725505073 -0.00415237046416 0.0
-0.0947203076632 0.0742134287513 0.0
-0.0833064214162 0.0639625138787 0.0
-0.0582261200515 -0.023758146052 0.0
-0.0490749972353 -0.0286148124575 0.0
-0.0577744823247 -0.0348042147852 0.0
-0.0425292295423 0.016830915004 0.0
-0.0461501033403 0.0116845130369 0.0
0.00229072161032 -0.0825021334353 0.0
-0.0309787116558 -0.0411690060248 0.0
-0.139053327227 -0.106252855672 0.0
-0.0871558359761 0.187601261064 0.0
-0.0778074933142 0.156782541782 0.0
-0.108117285779 0.162628189072 0.0
-0.0113230830041 -0.0180153702163 0.0
-0.0154915822435 -0.0252978256929 0.0
-0.0183449069344 -0.0194098053898 0.0
-0.016441818066 0.00801054249426 0.0
-0.022134448383 0.00875911742062 0.0
-0.0199495945891 0.01308622751 0.0
-0.151374396137 -0.0504571975769 0.0
-0.110061057983 0.0785705014533 0.0
-0.0432406987622 -0.0214851756159 0.0
-0.0390882430021 0.0228188486142 0.0
-0.11416373137 -0.00915337952732 0.0
-0.114282579436 -0.0251244848754 0.0
-0.112454997119 -0.0429594944665 0.0
-0.0590934519838 -0.0146677696124 0.0
-0.051958414256 -0.0116276779924 0.0
0.635210930529 0.00282055417825 0.0
-0.00406469748983 0.0457880903901 0.0
-0.00246092603853 -0.0251596739788 0.0
-0.0132721473527 0.000378214045915 0.0
-0.101074591042 0.0423259715726 0.0
-0.114810165575 0.0528371017499 0.0
-0.0620859540894 -0.0917546117472 0.0
-0.0825454454877 -0.102220302767 0.0
-0.0323193438972 0.0553279402629 0.0
-0.0314455398565 0.0465160629118 0.0
-0.0360151598365 -0.00217546699738 0.0
-0.0363593901131 -0.00518704947148 0.0
0.246171119902 -0.0516228183171 0.0
0.574615244688 -0.0246182481538 0.0
-0.0556318356159 0.188518832744 0.0
-0.0223611724495 0.148369665915 0.0
-0.0053217393402 -0.0138684342751 0.0
-0.00132546387669 -0.00649701366923 0.0
-0.011990941829 0.00385327224392 0.0
-0.00572595156671 0.00104375951678 0.0
-0.0523915284023 -0.280537351679 0.0
-0.127213281663 -0.325817866404 0.0
-0.00618342175562 -0.00113867271518 0.0
-0.0127702338916 -0.00415639790597 0.0
0.410780768469 0.0440431749224 0.0
0.0828856328884 0.101295703477 0.0
-0.00129321704423 0.00621964341506 0.0
-0.00514356650983 0.0131400417501 0.0
-0.0498737069761 0.135009233739 0.0
0.0783339608546 -0.00917803304457 0.0
-0.0234326382466 0.00566413406194 0.0
-0.0132362209255 -0.0309245981493 0.0
-0.191297786861 -0.181966579502 0.0
-0.178954698489 -0.273055013088 0.0
-0.117104083792 0.143512016062 0.0
-0.0711011258386 0.137644695149 0.0
-0.0213839769649 -0.0139327414381 0.0
-0.0175150491099 -0.00860069160038 0.0
-0.0174347832535 0.0183524460604 0.0
-0.0108792246256 0.0169951334765 0.0
-0.00116862377833 -0.00400043156337 0.0
0.507667052415 -0.0534806852888 0.0
-0.00367191349472 0.00101533334807 0.0
-0.0359715981059 0.197257517234 0.0
-0.0701273730145 -0.378243818951 0.0
-0.00395669065774 -0.00110531683475 0.0
0.312949989864 0.0737652336141 0.0
-0.00112871715171 0.00379620437144 0.0
0.0828573601673 0.0159911247437 0.0
-0.0266847969574 0.0821792592486 0.0
-0.0208651297775 -0.0583500418994 0.0
-0.0295957896483 0.00213861302409 0.0
-0.00423041191608 -0.00681054103755 0.0
-0.00634881399716 0.00371532504423 0.0
0.13710256697 -0.166515830054 0.0
-0.0864241831379 0.250776677084 0.0
-0.127301476419 -0.405695256604 0.0
-0.006726870313 -0.00399894797322 0.0
-0.0179147288561 0.180394186077 0.0
-0.00405266224485 0.00640585792844 0.0
-0.184925777612 -0.108587451656 0.0
-0.118395192097 0.130688203459 0.0
-0.0257134638713 -0.0194620651475 0.0
-0.0239634878401 0.0185152882314 0.0
-0.142533944863 0.0124642474027 0.0
-0.132217046608 0.00898652941646 0.0
-0.0679339083103 0.0643074914798 0.0
-0.0756177794683 0.0513710806455 0.0
-0.0593608342819 -0.0477059792571 0.0
-0.0438309855264 0.00617771680891 0.0
-0.0403866396325 0.0399632003218 0.0
-0.0230159622477 0.0531503601961 0.0
-0.0763688217626 0.0518403260752 0.0
-0.0231849644778 0.0453869114876 0.0
-0.0517455253639 -0.103601197703 0.0
-0.0326812076429 -0.00219679294893 0.0
-0.0727998782564 -0.12066047635 0.0
-0.0327161232239 -0.00457573445164 0.0
0.65788292884 -0.000603833740487 0.0
0.329160780189 -0.00366965774323 0.0
-0.00608090848968 0.0654350450671 0.0
-0.0252316071647 0.116573899082 0.0
0.212588316901 0.0420992975535 0.0
0.185772041704 0.00308322133439 0.0
-0.029976334376 0.109575626506 0.0
-0.055285321987 -0.172974399437 0.0
-0.00604609278309 0.0241238075144 0.0
-0.0193865046685 -0.00273298454028 0.0
0.571789585223 0.0108203265172 0.0
-0.0131241421043 -0.0945854155877 0.0
-0.00167596980149 0.0153527008196 0.0
-0.0117608095767 -0.000672453823136 0.0
-0.00158684887202 -0.01516726556 0.0
-0.00616555037842 -0.024944288648 0.0
-0.0104522653187 0.000615404117989 0.0
-0.017868933855 0.00262426020772 0.0
-0.0108713140827 -0.0354466488228 0.0
-0.0232602630453 0.00337867260414 0.0
-0.131596436332 0.0193154374873 0.0
-0.0559663693587 0.0725118356447 0.0
-0.0513074279199 -0.0572628958726 0.0
-0.0399467649266 0.00447441642623 0.0
-0.122105176596 0.0198623701049 0.0
-0.117032950032 0.00598452035557 0.0
-0.0697457791231 0.0402053867919 0.0
0.0347224775209 -0.134954235718 0.0
-0.0926848805481 0.218403628172 0.0
-0.164201100383 -0.329631289025 0.0
-0.00798464708753 -0.0121119365636 0.0
-0.0614604949791 0.167244915117 0.0
-0.011259073752 0.00652221639348 0.0
-0.0118921286752 -0.00700160731867 0.0
-0.00764903429994 0.0113846242529 0.0
-0.0310809383991 0.0126182632785 0.0
-0.107324789864 0.0142770223198 0.0
-0.0435041472631 0.0963575776422 0.0
-0.0537874087561 0.0865849448812 0.0
-0.0382305248555 -0.0538041091076 0.0
-0.0260138876078 -0.0514196072546 0.0
-0.0318540429381 0.00469068424443 0.0
-0.0362503551379 0.00560980845212 0.0
-0.120507653126 0.0645198411134 0.0
-0.128538718142 -0.0616125244281 0.0
-0.042432801753 0.03001852411 0.0
-0.0452549729242 -0.014026851936 0.0
-0.0826678768766 -0.266709919492 0.0
-0.0992480320255 0.221174343175 0.0
-0.00832710379794 -0.00803313865909 0.0
-0.0079273292518 0.00751349060026 0.0
-0.102710666553 0.00153192131096 0.0
0.360866276775 0.00550098096582 0.0