# vtk DataFile Version 2.0
2D Simulation Python
ASCII
DATASET UNSTRUCTURED_GRID
FIELD FieldData 1
NODES 1 2 int
11134 7299

POINTS 11134 double
0.0 1.0 0.0
1.725 1.0 0.0
8.275 1.0 0.0
10.0 1.0 0.0
10.0 0.0 0.0
0.0 0.0 0.0
0.05948275862057954 1.0 0.0
0.1189655172411507 1.0 0.0
0.1784482758617532 1.0 0.0
0.2379310344823185 1.0 0.0
0.2974137931028384 1.0 0.0
0.3568965517233564 1.0 0.0
0.4163793103438745 1.0 0.0
0.475862068964385 1.0 0.0
0.535344827584889 1.0 0.0
0.5948275862053855 1.0 0.0
0.654310344825882 1.0 0.0
0.7137931034463786 1.0 0.0
0.7732758620668752 1.0 0.0
0.8327586206874149 1.0 0.0
0.8922413793081027 1.0 0.0
0.9517241379289384 1.0 0.0
1.011206896549752 1.0 0.0
1.070689655170612 1.0 0.0
1.130172413791474 1.0 0.0
1.189655172412335 1.0 0.0
1.249137931033183 1.0 0.0
1.308620689654105 1.0 0.0
1.368103448274985 1.0 0.0
1.427586206895818 1.0 0.0
1.487068965516628 1.0 0.0
1.546551724137449 1.0 0.0
1.606034482758285 1.0 0.0
1.665517241379139 1.0 0.0
1.784545454545345 1.0 0.0
1.844090909090676 1.0 0.0
1.903636363635991 1.0 0.0
1.963181818181336 1.0 0.0
2.022727272726716 1.0 0.0
2.082272727272112 1.0 0.0
2.141818181817408 1.0 0.0
2.201363636362702 1.0 0.0
2.260909090908037 1.0 0.0
2.320454545453433 1.0 0.0
2.379999999998759 1.0 0.0
2.439545454544053 1.0 0.0
2.499090909089358 1.0 0.0
2.558636363634754 1.0 0.0
2.618181818180109 1.0 0.0
2.677727272725404 1.0 0.0
2.737272727270631 1.0 0.0
2.796818181815906 1.0 0.0
2.856363636361191 1.0 0.0
2.915909090906408 1.0 0.0
2.975454545451703 1.0 0.0
3.034999999997049 1.0 0.0
3.094545454542377 1.0 0.0
3.154090909087591 1.0 0.0
3.21363636363288 1.0 0.0
3.273181818178196 1.0 0.0
3.332727272723555 1.0 0.0
3.392272727268849 1.0 0.0
3.451818181814208 1.0 0.0
3.511363636359524 1.0 0.0
3.570909090904812 1.0 0.0
3.630454545450026 1.0 0.0
3.689999999995355 1.0 0.0
3.749545454540702 1.0 0.0
3.809090909085996 1.0 0.0
3.868636363631291 1.0 0.0
3.928181818176585 1.0 0.0
3.987727272721861 1.0 0.0
4.047272727267021 1.0 0.0
4.106818181812208 1.0 0.0
4.166363636357625 1.0 0.0
4.225909090903122 1.0 0.0
4.285454545448432 1.0 0.0
4.34499999999356 1.0 0.0
4.404545454538917 1.0 0.0
4.464090909084414 1.0 0.0
4.523636363629791 1.0 0.0
4.583181818174936 1.0 0.0
4.642727272720208 1.0 0.0
4.702272727265705 1.0 0.0
4.761818181811142 1.0 0.0
4.821363636356348 1.0 0.0
4.880909090901557 1.0 0.0
4.940454545446997 1.0 0.0
4.999999999992493 1.0 0.0
5.059545454538018 1.0 0.0
5.119090909083717 1.0 0.0
5.17863636362933 1.0 0.0
5.238181818174827 1.0 0.0
5.297727272720321 1.0 0.0
5.357272727265989 1.0 0.0
5.416818181811662 1.0 0.0
5.476363636357158 1.0 0.0
5.535909090902654 1.0 0.0
5.595454545448262 1.0 0.0
5.65499999999396 1.0 0.0
5.714545454539491 1.0 0.0
5.774090909085032 1.0 0.0
5.83363636363093 1.0 0.0
5.893181818176673 1.0 0.0
5.952727272722171 1.0 0.0
6.012272727267668 1.0 0.0
6.071818181813491 1.0 0.0
6.131363636359353 1.0 0.0
6.190909090904849 1.0 0.0
6.250454545450346 1.0 0.0
6.309999999996052 1.0 0.0
6.369545454541951 1.0 0.0
6.429090909087529 1.0 0.0
6.488636363633026 1.0 0.0
6.548181818178611 1.0 0.0
6.60772727272451 1.0 0.0
6.667272727270209 1.0 0.0
6.726818181815705 1.0 0.0
6.786363636361202 1.0 0.0
6.845909090907071 1.0 0.0
6.905454545452889 1.0 0.0
6.964999999998385 1.0 0.0
7.024545454543881 1.0 0.0
7.084090909089378 1.0 0.0
7.143636363634876 1.0 0.0
7.20318181818037 1.0 0.0
7.262727272725868 1.0 0.0
7.322272727271365 1.0 0.0
7.381818181816859 1.0 0.0
7.441363636362357 1.0 0.0
7.500909090907854 1.0 0.0
7.560454545453348 1.0 0.0
7.619999999998846 1.0 0.0
7.679545454544343 1.0 0.0
7.739090909089839 1.0 0.0
7.798636363635335 1.0 0.0
7.858181818180832 1.0 0.0
7.917727272726328 1.0 0.0
7.977272727271824 1.0 0.0
8.036818181817441 1.0 0.0
8.09636363636334 1.0 0.0
8.155909090909008 1.0 0.0
8.215454545454504 1.0 0.0
8.334482758620055 1.0 0.0
8.393965517240051 1.0 0.0
8.453448275859904 1.0 0.0
8.51293103448045 1.0 0.0
8.572413793100301 1.0 0.0
8.631896551720153 1.0 0.0
8.6913793103407 1.0 0.0
8.750862068961245 1.0 0.0
8.810344827581792 1.0 0.0
8.869827586202339 1.0 0.0
8.929310344822884 1.0 0.0
8.988793103443431 1.0 0.0
9.048275862063978 1.0 0.0
9.107758620684523 1.0 0.0
9.16724137930507 1.0 0.0
9.226724137925617 1.0 0.0
9.286206896546162 1.0 0.0
9.345689655167401 1.0 0.0
9.405172413788595 1.0 0.0
9.46465517240963 1.0 0.0
9.524137931030667 1.0 0.0
9.583620689651704 1.0 0.0
9.643103448272907 1.0 0.0
9.702586206894148 1.0 0.0
9.762068965515388 1.0 0.0
9.821551724136627 1.0 0.0
9.881034482757867 1.0 0.0
9.940517241378963 1.0 0.0
10.0 0.9411764705879904 0.0
10.0 0.882352941175982 0.0
10.0 0.8235294117645425 0.0
10.0 0.764705882353186 0.0
10.0 0.7058823529418295 0.0
10.0 0.6470588235304731 0.0
10.0 0.5882352941191167 0.0
10.0 0.5294117647077601 0.0
10.0 0.4705882352960771 0.0
10.0 0.4117647058840672 0.0
10.0 0.3529411764720576 0.0
10.0 0.2941176470600479 0.0
10.0 0.2352941176480381 0.0
10.0 0.1764705882360285 0.0
10.0 0.1176470588240187 0.0
10.0 0.05882352941200908 0.0
9.940119760479043 0.0 0.0
9.880239520958083 0.0 0.0
9.820359281437126 0.0 0.0
9.760479041916167 0.0 0.0
9.70059880239521 0.0 0.0
9.640718562874252 0.0 0.0
9.580838323353293 0.0 0.0
9.520958083832335 0.0 0.0
9.461077844311376 0.0 0.0
9.401197604790418 0.0 0.0
9.34131736526946 0.0 0.0
9.281437125748502 0.0 0.0
9.221556886227543 0.0 0.0
9.161676646706585 0.0 0.0
9.101796407185628 0.0 0.0
9.041916167664668 0.0 0.0
8.982035928143711 0.0 0.0
8.922155688622752 0.0 0.0
8.862275449101794 0.0 0.0
8.802395209580837 0.0 0.0
8.742514970059878 0.0 0.0
8.68263473053892 0.0 0.0
8.622754491017961 0.0 0.0
8.562874251497004 0.0 0.0
8.502994011976044 0.0 0.0
8.443113772455087 0.0 0.0
8.38323353293413 0.0 0.0
8.32335329341317 0.0 0.0
8.263473053892213 0.0 0.0
8.203592814371254 0.0 0.0
8.143712574850296 0.0 0.0
8.083832335329337 0.0 0.0
8.02395209580838 0.0 0.0
7.964071856287422 0.0 0.0
7.904191616766464 0.0 0.0
7.844311377245505 0.0 0.0
7.784431137724548 0.0 0.0
7.72455089820359 0.0 0.0
7.664670658682631 0.0 0.0
7.604790419161674 0.0 0.0
7.544910179640715 0.0 0.0
7.485029940119757 0.0 0.0
7.425149700598799 0.0 0.0
7.36526946107784 0.0 0.0
7.305389221556883 0.0 0.0
7.245508982035925 0.0 0.0
7.185628742514966 0.0 0.0
7.125748502994009 0.0 0.0
7.065868263473051 0.0 0.0
7.005988023952092 0.0 0.0
6.946107784431135 0.0 0.0
6.886227544910177 0.0 0.0
6.826347305389219 0.0 0.0
6.766467065868261 0.0 0.0
6.706586826347303 0.0 0.0
6.646706586826344 0.0 0.0
6.586826347305387 0.0 0.0
6.526946107784428 0.0 0.0
6.46706586826347 0.0 0.0
6.407185628742512 0.0 0.0
6.347305389221554 0.0 0.0
6.287425149700596 0.0 0.0
6.227544910179638 0.0 0.0
6.16766467065868 0.0 0.0
6.107784431137722 0.0 0.0
6.047904191616764 0.0 0.0
5.988023952095805 0.0 0.0
5.928143712574848 0.0 0.0
5.868263473053889 0.0 0.0
5.808383233532932 0.0 0.0
5.748502994011973 0.0 0.0
5.688622754491016 0.0 0.0
5.628742514970057 0.0 0.0
5.568862275449099 0.0 0.0
5.508982035928141 0.0 0.0
5.449101796407183 0.0 0.0
5.389221556886225 0.0 0.0
5.329341317365267 0.0 0.0
5.269461077844309 0.0 0.0
5.209580838323351 0.0 0.0
5.149700598802393 0.0 0.0
5.089820359281434 0.0 0.0
5.029940119760477 0.0 0.0
4.970059880239518 0.0 0.0
4.91017964071856 0.0 0.0
4.850299401197602 0.0 0.0
4.790419161676644 0.0 0.0
4.730538922155686 0.0 0.0
4.670658682634729 0.0 0.0
4.610778443113769 0.0 0.0
4.550898203592812 0.0 0.0
4.491017964071854 0.0 0.0
4.431137724550896 0.0 0.0
4.371257485029938 0.0 0.0
4.31137724550898 0.0 0.0
4.251497005988022 0.0 0.0
4.191616766467064 0.0 0.0
4.131736526946106 0.0 0.0
4.071856287425147 0.0 0.0
4.01197604790419 0.0 0.0
3.952095808383231 0.0 0.0
3.892215568862274 0.0 0.0
3.832335329341316 0.0 0.0
3.772455089820358 0.0 0.0
3.712574850299399 0.0 0.0
3.652694610778441 0.0 0.0
3.592814371257483 0.0 0.0
3.532934131736526 0.0 0.0
3.473053892215567 0.0 0.0
3.41317365269461 0.0 0.0
3.353293413173652 0.0 0.0
3.293413173652693 0.0 0.0
3.233532934131736 0.0 0.0
3.173652694610777 0.0 0.0
3.113772455089819 0.0 0.0
3.053892215568861 0.0 0.0
2.994011976047903 0.0 0.0
2.934131736526945 0.0 0.0
2.874251497005988 0.0 0.0
2.814371257485028 0.0 0.0
2.754491017964071 0.0 0.0
2.694610778443113 0.0 0.0
2.634730538922155 0.0 0.0
2.574850299401197 0.0 0.0
2.514970059880238 0.0 0.0
2.455089820359281 0.0 0.0
2.395209580838323 0.0 0.0
2.335329341317365 0.0 0.0
2.275449101796406 0.0 0.0
2.215568862275448 0.0 0.0
2.15568862275449 0.0 0.0
2.095808383233532 0.0 0.0
2.035928143712574 0.0 0.0
1.976047904191615 0.0 0.0
1.916167664670658 0.0 0.0
1.8562874251497 0.0 0.0
1.796407185628741 0.0 0.0
1.736526946107784 0.0 0.0
1.676646706586826 0.0 0.0
1.616766467065867 0.0 0.0
1.55688622754491 0.0 0.0
1.49700598802395 0.0 0.0
1.437125748502995 0.0 0.0
1.377245508982035 0.0 0.0
1.317365269461078 0.0 0.0
1.257485029940119 0.0 0.0
1.19760479041916 0.0 0.0
1.137724550898204 0.0 0.0
1.077844311377245 0.0 0.0
1.017964071856287 0.0 0.0
0.958083832335328 0.0 0.0
0.8982035928143723 0.0 0.0
0.8383233532934131 0.0 0.0
0.7784431137724539 0.0 0.0
0.7185628742514965 0.0 0.0
0.658682634730539 0.0 0.0
0.5988023952095816 0.0 0.0
0.5389221556886223 0.0 0.0
0.4790419161676631 0.0 0.0
0.4191616766467074 0.0 0.0
0.3592814371257482 0.0 0.0
0.2994011976047908 0.0 0.0
0.2395209580838316 0.0 0.0
0.1796407185628741 0.0 0.0
0.1197604790419167 0.0 0.0
0.05988023952095922 0.0 0.0
0.0 0.0588235294116454 0.0
0.0 0.1176470588233168 0.0
0.0 0.1764705882349203 0.0
0.0 0.2352941176465135 0.0
0.0 0.2941176470581066 0.0
0.0 0.3529411764696997 0.0
0.0 0.4117647058812929 0.0
0.0 0.4705882352928861 0.0
0.0 0.5294117647046425 0.0
0.0 0.5882352941165623 0.0
0.0 0.6470588235284821 0.0
0.0 0.7058823529404019 0.0
0.0 0.7647058823523216 0.0
0.0 0.8235294117642414 0.0
0.0 0.8823529411761613 0.0
0.0 0.941176470588081 0.0
9.496671432578891 0.5021202775764965 0.0
0.503328567417594 0.502120277573701 0.0
8.960949321310713 0.5028360638807294 0.0
1.039050678683441 0.5028360638815293 0.0
8.421726050444477 0.5013914029598456 0.0
1.578273949553219 0.5013914029599852 0.0
2.110012838156869 0.501717680037117 0.0
[...]
POINT_DATA 11134
VECTORS vector double
1.0 0.0 0.0
0.0 0.0 0.0
0.0 0.0 0.0
0.0 0.0 0.0
1.06725599356 -4.91186722552e-06 0.0
1.0 0.0 0.0
0.0 0.0 0.0
0.0 0.0 0.0
0.0 0.0 0.0
0.0 0.0 0.0
0.0 0.0 0.0
0.0 0.0 0.0
0.0 0.0 0.0
0.0 0.0 0.0
0.0 0.0 0.0
0.0 0.0 0.0
0.0 0.0 0.0
0.0 0.0 0.0
0.0 0.0 0.0
0.0 0.0 0.0
0.0 0.0 0.0
0.0 0.0 0.0
0.0 0.0 0.0
0.0 0.0 0.0
0.0 0.0 0.0
0.0 0.0 0.0
0.0 0.0 0.0
0.0 0.0 0.0
0.0 0.0 0.0
0.0 0.0 0.0
0.0 0.0 0.0
0.0 0.0 0.0
0.0 0.0 0.0
0.0 0.0 0.0
0.0 0.0 0.0
0.0 0.0 0.0
0.0 0.0 0.0
0.0 0.0 0.0
0.0 0.0 0.0
0.0 0.0 0.0
0.0 0.0 0.0
0.0 0.0 0.0
0.0 0.0 0.0
0.0 0.0 0.0
0.0 0.0 0.0
0.0 0.0 0.0
0.0 0.0 0.0
0.0 0.0 0.0
0.0 0.0 0.0
0.0 0.0 0.0
0.0 0.0 0.0
0.0 0.0 0.0
0.0 0.0 0.0
0.0 0.0 0.0
0.0 0.0 0.0
0.0 0.0 0.0
0.0 0.0 0.0
0.0 0.0 0.0
0.0 0.0 0.0
0.0 0.0 0.0
0.0 0.0 0.0
0.0 0.0 0.0
0.0 0.0 0.0
0.0 0.0 0.0
0.0 0.0 0.0
0.0 0.0 0.0
0.0 0.0 0.0
0.0 0.0 0.0
0.0 0.0 0.0
0.0 0.0 0.0
0.0 0.0 0.0
0.0 0.0 0.0
0.0 0.0 0.0
0.0 0.0 0.0
0.0 0.0 0.0
0.0 0.0 0.0
0.0 0.0 0.0
0.0 0.0 0.0
0.0 0.0 0.0
0.0 0.0 0.0
0.0 0.0 0.0
0.0 0.0 0.0
0.0 0.0 0.0
0.0 0.0 0.0
0.0 0.0 0.0
0.0 0.0 0.0
0.0 0.0 0.0
0.0 0.0 0.0
0.0 0.0 0.0
0.0 0.0 0.0
0.0 0.0 0.0
0.0 0.0 0.0
0.0 0.0 0.0
0.0 0.0 0.0
0.0 0.0 0.0
0.0 0.0 0.0
0.0 0.0 0.0
0.0 0.0 0.0
0.0 0.0 0.0
0.0 0.0 0.0
0.0 0.0 0.0
0.0 0.0 0.0
0.0 0.0 0.0
0.0 0.0 0.0
0.0 0.0 0.0
0.0 0.0 0.0
0.0 0.0 0.0
0.0 0.0 0.0
0.0 0.0 0.0
0.0 0.0 0.0
0.0 0.0 0.0
0.0 0.0 0.0
0.0 0.0 0.0
0.0 0.0 0.0
0.0 0.0 0.0
0.0 0.0 0.0
0.0 0.0 0.0
0.0 0.0 0.0
0.0 0.0 0.0
0.0 0.0 0.0
0.0 0.0 0.0
0.0 0.0 0.0
0.0 0.0 0.0
0.0 0.0 0.0
0.0 0.0 0.0
0.0 0.0 0.0
0.0 0.0 0.0
0.0 0.0 0.0
0.0 0.0 0.0
0.0 0.0 0.0
0.0 0.0 0.0
0.0 0.0 0.0
0.0 0.0 0.0
0.0 0.0 0.0
0.0 0.0 0.0
0.0 0.0 0.0
0.0 0.0 0.0
0.0 0.0 0.0
0.0 0.0 0.0
0.0 0.0 0.0
0.0 0.0 0.0
0.0 0.0 0.0
0.0 0.0 0.0
0.0 0.0 0.0
0.0 0.0 0.0
0.0 0.0 0.0
0.0 0.0 0.0
0.0 0.0 0.0
0.0 0.0 0.0
0.0 0.0 0.0
0.0 0.0 0.0
0.0 0.0 0.0
0.0 0.0 0.0
0.0 0.0 0.0
0.0 0.0 0.0
0.0 0.0 0.0
0.0 0.0 0.0
0.0 0.0 0.0
0.0 0.0 0.0
0.0 0.0 0.0
0.0 0.0 0.0
0.0 0.0 0.0
0.0 0.0 0.0
0.0 0.0 0.0
0.0 0.0 0.0
0.0 0.0 0.0
0.0 0.0 0.0
0.0 0.0 0.0
0.0 0.0 0.0
0.0 0.0 0.0
0.0 0.0 0.0
0.560275385201 0.0870024743901 0.0
0.900322297014 0.0363998890895 0.0
1.03295451299 0.0114905060697 0.0
1.06761692328 0.0010603444369 0.0
1.07062154238 -0.000277648368291 0.0
1.06936216579 -0.000547361820238 0.0
1.06965158462 -0.000233153030842 0.0
1.06931211468 -0.000192359582774 0.0
1.06916272035 -0.000111765547737 0.0
1.06906054739 -8.74929408256e-05 0.0
1.06905281312 -9.01061017787e-05 0.0
1.06832194642 -8.28548009424e-05 0.0
1.06790703767 2.51712533308e-05 0.0
1.06798243466 3.18794114536e-05 0.0
1.06829230109 2.66495556859e-05 0.0
1.06775709326 -2.2258733048e-05 0.0
1.06765017736 -3.47490392854e-06 0.0
1.06765479956 1.19581632606e-05 0.0
1.06763646168 -2.28790423363e-05 0.0
1.06758256168 1.510471438e-06 0.0
1.06760545816 7.28458305047e-06 0.0
1.06758449075 -1.02826350291e-07 0.0
1.06784757714 5.88662119483e-06 0.0
1.06751887492 -1.12801818526e-05 0.0
1.06781174675 -9.92999052251e-07 0.0
1.06763341551 -1.50749307181e-05 0.0
1.06753979362 3.260264599e-06 0.0
1.06784222223 9.77698658785e-06 0.0
1.06770978431 2.32894444365e-05 0.0
1.06773591536 -7.6622980563e-06 0.0
1.06775339898 1.28138530466e-05 0.0
1.06778327115 -2.42186399512e-06 0.0
1.06774355474 -7.6397409104e-06 0.0
1.06805687819 -1.18350475159e-06 0.0
1.06786076129 3.78354608648e-05 0.0
1.06791103911 -9.47894334858e-06 0.0
1.06791344875 1.87382084297e-05 0.0
1.06786360777 -3.3006884217e-05 0.0
1.06782902482 7.36605247662e-06 0.0
1.06805183292 -4.11785607006e-05 0.0
1.06774577494 3.05292770436e-05 0.0
1.06780154827 8.04269211297e-06 0.0
1.06776423025 -1.89908024704e-05 0.0
1.06768886242 -1.2345139956e-05 0.0
1.06763478436 -3.37674623135e-05 0.0
1.06757172974 6.8331738758e-06 0.0
1.06755436989 -1.83832676601e-05 0.0
1.06763228525 -2.22661135059e-05 0.0
1.06729755169 -2.9738577469e-05 0.0
1.06746327853 -2.33341926659e-05 0.0
1.06667795465 4.39073236377e-06 0.0
1.06725256312 -2.24173088819e-05 0.0
1.0670962703 6.18062395467e-06 0.0
1.06707196326 -1.88682739185e-05 0.0
1.06704415025 6.26867918339e-06 0.0
1.0670435127 6.96492754074e-07 0.0
1.06720650587 -1.52338104787e-05 0.0
1.06693404712 9.44175142071e-06 0.0
1.06724716725 2.24379426156e-05 0.0
1.06659494437 -2.43432859958e-06 0.0
1.06727530608 5.43103236868e-06 0.0
1.06712077912 1.34688750972e-06 0.0
1.06713716305 -4.78570670591e-06 0.0
1.06717212576 1.68646800479e-05 0.0
1.06717399261 -1.05282016513e-05 0.0
1.06741332433 3.98419729696e-05 0.0
1.06715542326 -3.17106635551e-05 0.0
1.06742676479 2.08063125302e-05 0.0
1.0667721284 8.97072594045e-07 0.0
1.0674349536 1.17996304975e-05 0.0
1.06725892836 -1.38123371702e-05 0.0
1.06725614445 1.90373250887e-06 0.0
1.0673034951 1.08682574028e-05 0.0
1.06731093337 -8.66534197763e-07 0.0
1.0674954988 1.1228772093e-05 0.0
1.06721678374 -3.67336632197e-05 0.0
1.06746857194 1.6878035761e-05 0.0
1.06676951206 -7.64021662262e-06 0.0
1.06744254069 4.53518317164e-06 0.0
1.06726140353 -5.60541915156e-06 0.0
1.06726681713 -6.55415482882e-06 0.0
1.06726924383 7.40892441487e-06 0.0
1.06724486323 -3.30417215667e-06 0.0
1.06718442981 -3.25790888726e-05 0.0
1.06733775754 -9.68796808201e-06 0.0
1.06710566542 1.52198027783e-05 0.0
1.06707097126 1.5490249529e-05 0.0
1.06716404825 -2.57147775069e-05 0.0
1.06703927061 7.76293549659e-06 0.0
1.06723076912 1.50983899442e-05 0.0
1.0671518352 -2.58242701026e-06 0.0
1.06720712352 8.07965110732e-06 0.0
1.06724610838 8.94892748261e-06 0.0
1.06733587947 2.39065869293e-05 0.0
1.06734949097 -1.44596178401e-05 0.0
1.06731025284 7.6374648706e-06 0.0
1.06727986429 -6.7132663676e-06 0.0
1.06730156102 3.90197342394e-06 0.0
1.06730541763 -1.04385865506e-05 0.0
1.06747610757 6.83096294421e-06 0.0
1.06720241857 -1.21803158797e-05 0.0
1.06728793154 1.36522779615e-05 0.0
1.06718213716 -1.55246602241e-05 0.0
1.06722226286 -1.29292343343e-05 0.0
1.06744415992 1.43981061881e-05 0.0
1.06723759581 -1.13013446446e-05 0.0
1.06725131782 1.22815346563e-05 0.0
1.06730072032 8.30077559142e-06 0.0
1.06729273423 -1.07076938653e-05 0.0
1.06747966891 2.30609991866e-06 0.0
1.06744907009 1.45146974233e-05 0.0
1.06682428954 -1.242052709e-06 0.0
1.06749984582 -1.82537663221e-05 0.0
1.06723075905 2.0739261981e-06 0.0
1.06744284637 3.97859481857e-07 0.0
1.06725917897 -4.06754086308e-06 0.0
1.06728474594 1.73886743524e-05 0.0
1.06725979327 -2.42534378732e-05 0.0
1.06723684113 1.66967543304e-05 0.0
1.0674572958 5.50013031376e-06 0.0
1.0668051395 1.10995458941e-06 0.0
1.06747711671 -2.90597784964e-05 0.0
1.06718400891 3.10419762888e-05 0.0
1.06743733568 -3.12641096939e-05 0.0
1.06720984484 7.39092062597e-06 0.0
1.06720641798 -9.32416001846e-06 0.0
1.06717063387 -2.75622717479e-07 0.0
1.06716601138 5.68766984568e-06 0.0
1.06733158225 -1.26082946469e-06 0.0
1.06670810623 -2.09111100948e-06 0.0
1.06733078735 -3.6990563332e-05 0.0
1.06704276905 3.45590420464e-05 0.0
1.06730014844 -3.87257041873e-05 0.0
1.06707281034 1.49664915035e-05 0.0
1.06706645933 -2.4239376868e-05 0.0
1.06702522907 1.02860841411e-05 0.0
1.06701775893 -6.37367379919e-07 0.0
1.06719093009 5.3294157074e-06 0.0
1.06654027027 5.21865677999e-07 0.0
1.0672246599 -7.78751694725e-06 0.0
1.06696563016 -8.54325533484e-07 0.0
1.06729394189 3.14233587945e-05 0.0
1.06717643344 9.88330122125e-06 0.0
1.06720954222 1.38944215337e-07 0.0
1.06727257698 2.45102033591e-05 0.0
1.06730877021 -5.33144772266e-06 0.0
1.067470442 2.22335480586e-05 0.0
1.06688110334 -3.10067416544e-06 0.0
1.06764516981 9.89902299741e-06 0.0
1.0674150988 1.45054279057e-05 0.0
1.06766622548 -8.19136545619e-06 0.0
1.06746075217 -1.04770718296e-05 0.0
1.06736639676 -3.46589392648e-05 0.0
1.06724029293 -1.67368571873e-06 0.0
1.06709039126 -5.71899406827e-05 0.0
1.06693050635 -2.99934212125e-05 0.0
1.0666478905 -5.53921279812e-05 0.0
1.06634994816 -9.38487940666e-05 0.0
1.0662427321 -7.62244103178e-05 0.0
1.06560364436 -7.27427001503e-05 0.0
1.06515496257 -0.000124810652559 0.0
1.06469622687 -0.000186656159805 0.0
1.06384730816 -0.000155952545187 0.0
1.06305172545 -0.000242896093197 0.0
1.06198046254 -0.000362814363908 0.0
1.0601858351 -0.000260876157195 0.0
1.05870134894 -0.000375095525295 0.0
1.05722126368 -0.000385045245938 0.0
1.05480404914 -0.0003831686472 0.0
1.05279269643 -0.0006342811126 0.0
1.04949714461 -0.00114085963578 0.0
1.04572697709 -0.000474633269131 0.0
1.04261179236 -0.000453180006348 0.0
1.03923058564 -0.00150559113107 0.0
1.03466717483 -0.000372404814349 0.0
1.03117383833 -0.00103115611385 0.0
1.02804017188 -0.000380685321841 0.0
1.02366575172 -0.00121042556038 0.0
1.01849716944 -0.00148457723257 0.0
1.01075510609 -0.00175873857122 0.0
1.00555803135 -0.00103990200814 0.0
1.00167752377 -0.00056346960582 0.0
1.0 0.0 0.0
1.0 0.0 0.0
1.0 0.0 0.0
1.0 0.0 0.0
1.0 0.0 0.0
1.0 0.0 0.0
1.0 0.0 0.0
1.0 0.0 0.0
1.0 0.0 0.0
1.0 0.0 0.0
1.0 0.0 0.0
1.0 0.0 0.0
1.0 0.0 0.0
1.0 0.0 0.0
1.0 0.0 0.0
1.0 0.0 0.0
1.0687272357 2.98297035531e-05 0.0
1.06129716626 -0.0432061320569 0.0
1.0690755596 0.000182339991207 0.0
1.06938598131 -0.00732647183025 0.0
1.0694110466 -0.000564548892565 0.0
1.06949196711 -0.00132135635284 0.0
1.06895316435 0.00064713714003 0.0
1.06782018749 -0.000915988722001 0.0
1.06764476098 -4.40041175137e-06 0.0
1.06830324948 0.000222310177906 0.0
1.06829916017 -0.000221595715334 0.0
1.06845786395 4.20519924643e-05 0.0
1.06835380436 -0.000101472477304 0.0
1.06868931291 -5.48162341325e-05 0.0
1.06840928274 -2.98541539992e-05 0.0
1.06827241962 5.11529946787e-05 0.0
1.06840727346 -0.000491717304593 0.0
1.06889627888 0.000525357701592 0.0
1.06820037984 0.00125453215375 0.0
1.07947827251 -0.0161538246454 0.0
1.06877237675 0.000229623268686 0.0
1.05919076751 -0.0142997136033 0.0
1.06862945734 0.00124753364608 0.0
1.07006215415 -0.00197586713981 0.0
1.0682925028 -3.08549587087e-06 0.0
1.06835124753 -0.00116922449014 0.0
1.06941979144 0.00152172230671 0.0
1.06639096662 0.00228114661215 0.0
1.06554670997 0.00178249054682 0.0
1.06829676936 -0.000107093361406 0.0
1.06845026336 -6.38125087139e-05 0.0
1.06781510928 -0.000206971706813 0.0
1.06703323207 0.000659224004871 0.0
1.06793752713 0.000490658317357 0.0
1.06691026959 0.000722069052527 0.0
1.06792173637 0.000481485442507 0.0
1.0669776625 -0.000868057860556 0.0
1.06744239726 0.0016016615776 0.0
1.068465676 0.000217482577091 0.0
1.0684009639 -0.00023202520803 0.0
1.0683638379 0.000303331432548 0.0
1.06816685061 -0.000318787806718 0.0
1.06827446799 0.00019328514771 0.0
1.06803544665 0.000187126004023 0.0
1.06821876206 -0.000515566445942 0.0
1.06849468551 -0.000158603218936 0.0
1.06755614224 -0.00257392215812 0.0
1.06904507819 2.69630576863e-05 0.0
1.0677381484 0.000338584046978 0.0
1.06847584292 -0.000204968333848 0.0
1.06717694622 0.00049871388735 0.0
1.07023401004 -0.00114084928395 0.0
1.08470821655 -0.105280429106 0.0
1.06807298071 -0.00132445046367 0.0
1.06822409609 -0.000139645008778 0.0
1.0185978839 -0.0309746510527 0.0
1.07149793414 -0.00236253360588 0.0
1.07604787434 -0.00542539259914 0.0
1.07248981918 -0.00233846936044 0.0
1.07166226116 -0.00401888999924 0.0
1.06789108655 3.7716762603e-05 0.0
1.06798901672 -1.93358639888e-05 0.0
1.06796238827 -8.65159841964e-05 0.0
1.06743814835 2.69587493502e-05 0.0
1.07260237602 -0.00128636307486 0.0
1.0694167558 -0.00295180238937 0.0
1.06844104143 -0.00142138322053 0.0
1.07229507205 -0.00137465446871 0.0
1.07040271808 -0.000919975823368 0.0
1.07188274908 -0.00178924763544 0.0
1.07024489848 -0.000738641661814 0.0
1.07264653139 -0.00113028249086 0.0
1.07060170386 -0.000877759433212 0.0
1.06734049463 -0.00010486073627 0.0
1.06787244131 -9.17943420077e-05 0.0
1.06801725177 3.66830569421e-05 0.0
1.06766883627 -2.62714632448e-05 0.0
1.06781370858 0.0001564488994 0.0
1.06784436261 0.00037484792775 0.0
1.06684070265 -0.00238425113858 0.0
1.06832750967 0.000162927551666 0.0
1.06788428657 -0.000200779103965 0.0
1.06853120404 6.83095960678e-05 0.0
1.06317831595 -0.00583350009374 0.0
1.06846745125 -0.000236318564165 0.0
1.06797758442 -0.000751409066707 0.0
1.06714716274 0.000590042213225 0.0
1.10632159126 -0.0379205943849 0.0
1.06799475054 -1.56918715033e-05 0.0
1.04219981306 -0.0194915166857 0.0
1.06626550719 0.00255258450947 0.0
1.06784552759 8.57725557758e-05 0.0
1.02033373936 -0.0513431490243 0.0
1.06884555949 -0.000431475754914 0.0
1.06781211889 0.000447807402204 0.0
1.06869105465 -0.000160745206886 0.0
1.06779385924 0.000204005165262 0.0
1.06835922997 -5.70329315145e-05 0.0
1.0678148301 -0.000391498431077 0.0
1.06833913661 -0.000113964137479 0.0
1.06843262203 0.000261279827332 0.0
1.06932851739 0.000180505756595 0.0
1.06916901644 -0.0025316078068 0.0
1.06896387314 -0.000902452136179 0.0
1.06965688651 -0.000195976063756 0.0
1.06813452739 -0.000364187347096 0.0
1.06831402662 0.000317443798806 0.0
1.06768471461 0.000474349935552 0.0
1.06782913215 0.000579201885554 0.0
1.06922065995 -0.0140645042056 0.0
1.06885720431 0.000513244639542 0.0
1.06819991045 6.14785959698e-05 0.0
1.06469969532 -0.00240263017917 0.0
1.0672484643 -8.58716006938e-06 0.0
1.06724093852 9.94555338526e-07 0.0
1.06717696182 -3.59554146913e-05 0.0
1.06716453055 4.75147299067e-05 0.0
1.06702238232 -6.24839509235e-05 0.0
1.06691433982 1.95747911658e-05 0.0
1.0669471175 0.000139132613812 0.0
1.0671794596 -0.000251342583131 0.0
1.06737048394 1.33530251382e-05 0.0
1.06618195182 -0.00112287704917 0.0
1.06767285976 -3.16188230364e-05 0.0
1.04356755561 0.00667153432734 0.0
1.05287224305 -0.00739845079039 0.0
1.0435628849 -0.00526045997649 0.0
1.04521921982 0.0060636755247 0.0
1.03859165665 0.00475430030177 0.0
1.03932776461 -0.00391700639811 0.0
1.04492996828 0.000421686081473 0.0
1.04064493823 -0.00115460723189 0.0
1.04208085624 -0.00223779626152 0.0
1.0443321459 0.00952757023578 0.0
1.04064536431 0.0101184999387 0.0
1.03929454736 -0.00394682270751 0.0
1.04322063611 -0.00227969841098 0.0
1.04258417174 0.00715024280347 0.0
1.04226584959 0.000811056509687 0.0
1.04200639765 -0.0053403914505 0.0
1.04279741929 -0.00193688885379 0.0
1.04226702426 0.00788754401729 0.0
1.04093909301 -0.00272016039096 0.0
1.04132141002 0.000511286928529 0.0
1.0419279721 0.00257881559997 0.0
1.04180372916 -0.00531637243686 0.0
1.04276269086 -0.00221199245045 0.0
1.04179911414 0.00259251501131 0.0
1.04386685782 -0.00694566581154 0.0
1.04306008589 0.00410049624297 0.0
1.06740692566 5.84418016544e-06 0.0
1.0681588674 0.000373017528984 0.0
1.06962673054 -0.0259525449636 0.0
1.06753069172 -1.24111472051e-05 0.0
1.06711792066 -0.000232429519907 0.0
1.0682990543 0.00115220306936 0.0
1.06825584967 8.10133261258e-05 0.0
1.06804162509 -0.000310168719674 0.0
1.06824307653 -3.52527943968e-05 0.0
1.06847134527 -7.87640668824e-05 0.0
1.06912143803 9.88231091007e-05 0.0
1.06842648557 -0.000839471333913 0.0
1.06842527782 -0.000607392215162 0.0
1.06847414104 4.1476625545e-05 0.0
1.06843266451 0.000348064266348 0.0
1.06982340957 -0.00403372286263 0.0
1.06908386081 0.000132198811897 0.0
1.03058629451 0.00127366178254 0.0
1.031173118 0.00191106545152 0.0
1.06807491445 9.75900383389e-05 0.0
1.05742428295 -0.00624503699269 0.0
1.12180219549 -0.148742191712 0.0
1.04324504986 -0.00320591707725 0.0
1.0342875342 -0.000290264003795 0.0
1.05810214394 -0.0106435115652 0.0
1.06797615774 -0.000220154803469 0.0
1.06774012685 -0.000248632868957 0.0
1.06710994058 -4.23109830097e-05 0.0
1.06736649441 0.000143667435384 0.0
1.06730818102 6.53501068833e-05 0.0
1.0671521356 -5.6899612937e-05 0.0
1.0677846577 -8.73452406322e-05 0.0
1.00436021947 -0.0123594871005 0.0
1.06739017793 4.6922261209e-06 0.0
1.06733494208 -1.27243932921e-05 0.0
1.06766916738 -8.47095229899e-05 0.0
1.06741226909 1.3525869236e-05 0.0
1.06745358056 -6.02424975901e-05 0.0
1.06761628756 1.8151335855e-05 0.0
1.06750925027 -1.51300392886e-05 0.0
1.0692860522 8.15075635149e-05 0.0
1.06709135227 -0.00469066659006 0.0
1.03181960955 -0.00284836026145 0.0
1.03341706124 -0.00148651104002 0.0
1.06832187037 -0.000525336565801 0.0
1.06890707251 0.000161635082205 0.0
1.06827196655 2.72477127417e-05 0.0
1.0501127425 -0.00934860087393 0.0
1.06912717666 -7.39087685549e-05 0.0
1.06845689124 -0.00174709680517 0.0
1.06818507262 5.51121737508e-05 0.0
1.06800621532 0.000329335293327 0.0
1.06838533672 -2.42739446812e-05 0.0
1.06825329539 -5.12953568333e-05 0.0
1.06850481102 -0.00012305319112 0.0
1.0683944851 7.50823118538e-05 0.0
1.06834330828 0.000128119375161 0.0
1.02879879248 0.00565052789492 0.0
1.01113758171 0.000162797531964 0.0
1.06773474008 -1.79422350509e-05 0.0
1.06709135964 0.00013516817966 0.0
1.0228150029 0.000704672072871 0.0
1.11641962449 -0.0653630383417 0.0
1.06810227482 1.15065132292e-05 0.0
1.02419897354 -0.0152391894984 0.0
1.06862025922 -1.13398811661e-05 0.0
1.06889248108 -0.000130283837638 0.0
1.06859151758 0.000194257488252 0.0
1.06880701718 0.000139225996875 0.0
1.06835073126 3.29833460854e-05 0.0
1.06841461844 -7.69760097383e-06 0.0
1.06847325376 -0.000175098607376 0.0
1.06834302587 -9.49071361384e-05 0.0
1.06841370216 1.45465170778e-05 0.0
1.06973218391 0.00075804616357 0.0
1.07380658986 -0.00968238119347 0.0
1.06797046875 -0.000116474012418 0.0
1.0682513667 0.000159240777314 0.0
1.06851657344 0.00050435509501 0.0
1.06788804182 -0.000307744587645 0.0
1.06827012735 -0.000491477618137 0.0
1.06813130483 -0.00041244249451 0.0
1.06929182391 0.0011323792887 0.0
1.07036120214 0.000539621283202 0.0
1.06964842653 -0.00259807408126 0.0
1.06944425394 -0.00169143065446 0.0
1.07123221824 -0.00044838908946 0.0
1.06814701202 -0.000698007445643 0.0
1.06906646088 0.000859701727172 0.0
1.06665275778 -0.000127195157089 0.0
1.06878270899 0.00166114910113 0.0
1.06804145212 -2.75944032357e-05 0.0
1.06868312297 -0.00129145497943 0.0
1.05596481421 -0.0247825042982 0.0
1.06894698771 0.000161772884244 0.0
1.06849745942 0.00125504131834 0.0
1.06953430339 0.000426001960492 0.0
1.0685501071 -0.00035300594433 0.0
1.05576607386 -0.0678624459206 0.0
1.020117256 -0.058169191898 0.0
1.06896172516 -0.000839770864452 0.0
1.00556444919 -0.0202936928771 0.0
1.0685501998 -0.000151518664375 0.0
1.06878941637 3.80100562965e-05 0.0
1.0382602368 -0.034915299449 0.0
1.06836097723 1.48484165168e-05 0.0
1.06826102698 -0.000227313919846 0.0
1.06743671601 -0.000189335080705 0.0
1.0681146957 6.87643789639e-05 0.0
1.06923720721 -0.00045748766811 0.0
1.06924439987 -0.000729484554192 0.0
1.06601380999 -0.00886859066358 0.0
1.06922083625 0.000177813608558 0.0
1.06599310983 -0.00183456279351 0.0
1.06979632509 0.00259593829241 0.0
1.06822300463 -0.00108288888014 0.0
1.06829736659 -0.00039097630172 0.0
1.06809231099 -0.00124176162418 0.0
1.06919373293 0.000223758752485 0.0
1.06900206748 -0.00180050639691 0.0
1.06912018193 0.000326825152247 0.0
1.06937339021 0.000703762166084 0.0
1.06902542834 -0.000219184750658 0.0
1.06890434595 -0.00122738103238 0.0
1.07261728011 -0.00346704153801 0.0
1.06832994184 -0.00072313951974 0.0
1.06906154772 -0.000488780319866 0.0
1.06838476729 0.000232462173469 0.0
1.07619381887 -0.0369375561716 0.0
1.06773350566 0.000253292230685 0.0
1.0656581136 -0.00126890950223 0.0
1.06836400119 1.2433461385e-05 0.0
1.06805238993 -0.000350461348678 0.0
1.09035969535 -0.0685108012823 0.0
1.06216589354 -0.00256553186407 0.0
1.06801508889 3.54808773568e-05 0.0
1.06672603597 4.70241492094e-06 0.0
1.06665671465 -1.5017927746e-05 0.0
1.06669550906 -7.68739853825e-06 0.0
1.06661435273 1.77031377867e-05 0.0
1.06651281852 -3.16326322752e-05 0.0
1.06639893813 5.5085404803e-05 0.0
1.06634464247 2.43568338327e-05 0.0
1.06720758827 7.23461442709e-05 0.0
1.0669773475 -0.000131023576583 0.0
1.0674198886 -0.000556211933423 0.0
1.06839521847 -6.1313053028e-05 0.0
0.959843822382 0.00144566437565 0.0
0.968203790337 -0.00968846559751 0.0
0.942309683893 0.00722324316076 0.0
0.943735144548 -0.00779919885048 0.0
0.909188365565 -0.0124117048925 0.0
0.908423302297 0.00128141004027 0.0
0.956692610824 0.00311703922525 0.0
0.96130855452 -0.00949571374344 0.0
0.967624756644 -0.00674648986081 0.0
0.963600556792 0.00257138839171 0.0
0.965216603241 -0.00673829527867 0.0