# vtk DataFile Version 2.0
2D Simulation Python
ASCII
DATASET UNSTRUCTURED_GRID
FIELD FieldData 1
NODES 1 2 int
11134 7299

POINTS 11134 double
0.0 1.0 0.0
1.725 1.0 0.0
8.275 1.0 0.0
10.0 1.0 0.0
10.0 0.0 0.0
0.0 0.0 0.0
0.05948275862057954 1.0 0.0
0.1189655172411507 1.0 0.0
0.1784482758617532 1.0 0.0
0.2379310344823185 1.0 0.0
0.2974137931028384 1.0 0.0
0.3568965517233564 1.0 0.0
0.4163793103438745 1.0 0.0
0.475862068964385 1.0 0.0
0.535344827584889 1.0 0.0
0.5948275862053855 1.0 0.0
0.654310344825882 1.0 0.0
0.7137931034463786 1.0 0.0
0.7732758620668752 1.0 0.0
0.8327586206874149 1.0 0.0
0.8922413793081027 1.0 0.0
0.9517241379289384 1.0 0.0
1.011206896549752 1.0 0.0
1.070689655170612 1.0 0.0
1.130172413791474 1.0 0.0
1.189655172412335 1.0 0.0
1.249137931033183 1.0 0.0
1.308620689654105 1.0 0.0
1.368103448274985 1.0 0.0
1.427586206895818 1.0 0.0
1.487068965516628 1.0 0.0
1.546551724137449 1.0 0.0
1.606034482758285 1.0 0.0
1.665517241379139 1.0 0.0
1.784545454545345 1.0 0.0
1.844090909090676 1.0 0.0
1.903636363635991 1.0 0.0
1.963181818181336 1.0 0.0
2.022727272726716 1.0 0.0
2.082272727272112 1.0 0.0
2.141818181817408 1.0 0.0
2.201363636362702 1.0 0.0
2.260909090908037 1.0 0.0
2.320454545453433 1.0 0.0
2.379999999998759 1.0 0.0
2.439545454544053 1.0 0.0
2.499090909089358 1.0 0.0
2.558636363634754 1.0 0.0
2.618181818180109 1.0 0.0
2.677727272725404 1.0 0.0
2.737272727270631 1.0 0.0
2.796818181815906 1.0 0.0
2.856363636361191 1.0 0.0
2.915909090906408 1.0 0.0
2.975454545451703 1.0 0.0
3.034999999997049 1.0 0.0
3.094545454542377 1.0 0.0
3.154090909087591 1.0 0.0
3.21363636363288 1.0 0.0
3.273181818178196 1.0 0.0
3.332727272723555 1.0 0.0
3.392272727268849 1.0 0.0
3.451818181814208 1.0 0.0
3.511363636359524 1.0 0.0
3.570909090904812 1.0 0.0
3.630454545450026 1.0 0.0
3.689999999995355 1.0 0.0
3.749545454540702 1.0 0.0
3.809090909085996 1.0 0.0
3.868636363631291 1.0 0.0
3.928181818176585 1.0 0.0
3.987727272721861 1.0 0.0
4.047272727267021 1.0 0.0
4.106818181812208 1.0 0.0
4.166363636357625 1.0 0.0
4.225909090903122 1.0 0.0
4.285454545448432 1.0 0.0
4.34499999999356 1.0 0.0
4.404545454538917 1.0 0.0
4.464090909084414 1.0 0.0
4.523636363629791 1.0 0.0
4.583181818174936 1.0 0.0
4.642727272720208 1.0 0.0
4.702272727265705 1.0 0.0
4.761818181811142 1.0 0.0
4.821363636356348 1.0 0.0
4.880909090901557 1.0 0.0
4.940454545446997 1.0 0.0
4.999999999992493 1.0 0.0
5.059545454538018 1.0 0.0
5.119090909083717 1.0 0.0
5.17863636362933 1.0 0.0
5.238181818174827 1.0 0.0
5.297727272720321 1.0 0.0
5.357272727265989 1.0 0.0
5.416818181811662 1.0 0.0
5.476363636357158 1.0 0.0
5.535909090902654 1.0 0.0
5.595454545448262 1.0 0.0
5.65499999999396 1.0 0.0
5.714545454539491 1.0 0.0
5.774090909085032 1.0 0.0
5.83363636363093 1.0 0.0
5.893181818176673 1.0 0.0
5.952727272722171 1.0 0.0
6.012272727267668 1.0 0.0
6.071818181813491 1.0 0.0
6.131363636359353 1.0 0.0
6.190909090904849 1.0 0.0
6.250454545450346 1.0 0.0
6.309999999996052 1.0 0.0
6.369545454541951 1.0 0.0
6.429090909087529 1.0 0.0
6.488636363633026 1.0 0.0
6.548181818178611 1.0 0.0
6.60772727272451 1.0 0.0
6.667272727270209 1.0 0.0
6.726818181815705 1.0 0.0
6.786363636361202 1.0 0.0
6.845909090907071 1.0 0.0
6.905454545452889 1.0 0.0
6.964999999998385 1.0 0.0
7.024545454543881 1.0 0.0
7.084090909089378 1.0 0.0
7.143636363634876 1.0 0.0
7.20318181818037 1.0 0.0
7.262727272725868 1.0 0.0
7.322272727271365 1.0 0.0
7.381818181816859 1.0 0.0
7.441363636362357 1.0 0.0
7.500909090907854 1.0 0.0
7.560454545453348 1.0 0.0
7.619999999998846 1.0 0.0
7.679545454544343 1.0 0.0
7.739090909089839 1.0 0.0
7.798636363635335 1.0 0.0
7.858181818180832 1.0 0.0
7.917727272726328 1.0 0.0
7.977272727271824 1.0 0.0
8.036818181817441 1.0 0.0
8.09636363636334 1.0 0.0
8.155909090909008 1.0 0.0
8.215454545454504 1.0 0.0
8.334482758620055 1.0 0.0
8.393965517240051 1.0 0.0
8.453448275859904 1.0 0.0
8.51293103448045 1.0 0.0
8.572413793100301 1.0 0.0
8.631896551720153 1.0 0.0
8.6913793103407 1.0 0.0
8.750862068961245 1.0 0.0
8.810344827581792 1.0 0.0
8.869827586202339 1.0 0.0
8.929310344822884 1.0 0.0
8.988793103443431 1.0 0.0
9.048275862063978 1.0 0.0
9.107758620684523 1.0 0.0
9.16724137930507 1.0 0.0
9.226724137925617 1.0 0.0
9.286206896546162 1.0 0.0
9.345689655167401 1.0 0.0
9.405172413788595 1.0 0.0
9.46465517240963 1.0 0.0
9.524137931030667 1.0 0.0
9.583620689651704 1.0 0.0
9.643103448272907 1.0 0.0
9.702586206894148 1.0 0.0
9.762068965515388 1.0 0.0
9.821551724136627 1.0 0.0
9.881034482757867 1.0 0.0
9.940517241378963 1.0 0.0
10.0 0.9411764705879904 0.0
10.0 0.882352941175982 0.0
10.0 0.8235294117645425 0.0
10.0 0.764705882353186 0.0
10.0 0.7058823529418295 0.0
10.0 0.6470588235304731 0.0
10.0 0.5882352941191167 0.0
10.0 0.5294117647077601 0.0
10.0 0.4705882352960771 0.0
10.0 0.4117647058840672 0.0
10.0 0.3529411764720576 0.0
10.0 0.2941176470600479 0.0
10.0 0.2352941176480381 0.0
10.0 0.1764705882360285 0.0
10.0 0.1176470588240187 0.0
10.0 0.05882352941200908 0.0
9.940119760479043 0.0 0.0
9.880239520958083 0.0 0.0
9.820359281437126 0.0 0.0
9.760479041916167 0.0 0.0
9.70059880239521 0.0 0.0
9.640718562874252 0.0 0.0
9.580838323353293 0.0 0.0
9.520958083832335 0.0 0.0
9.461077844311376 0.0 0.0
9.401197604790418 0.0 0.0
9.34131736526946 0.0 0.0
9.281437125748502 0.0 0.0
9.221556886227543 0.0 0.0
9.161676646706585 0.0 0.0
9.101796407185628 0.0 0.0
9.041916167664668 0.0 0.0
8.982035928143711 0.0 0.0
8.922155688622752 0.0 0.0
8.862275449101794 0.0 0.0
8.802395209580837 0.0 0.0
8.742514970059878 0.0 0.0
8.68263473053892 0.0 0.0
8.622754491017961 0.0 0.0
8.562874251497004 0.0 0.0
8.502994011976044 0.0 0.0
8.443113772455087 0.0 0.0
8.38323353293413 0.0 0.0
8.32335329341317 0.0 0.0
8.263473053892213 0.0 0.0
8.203592814371254 0.0 0.0
8.143712574850296 0.0 0.0
8.083832335329337 0.0 0.0
8.02395209580838 0.0 0.0
7.964071856287422 0.0 0.0
7.904191616766464 0.0 0.0
7.844311377245505 0.0 0.0
7.784431137724548 0.0 0.0
7.72455089820359 0.0 0.0
7.664670658682631 0.0 0.0
7.604790419161674 0.0 0.0
7.544910179640715 0.0 0.0
7.485029940119757 0.0 0.0
7.425149700598799 0.0 0.0
7.36526946107784 0.0 0.0
7.305389221556883 0.0 0.0
7.245508982035925 0.0 0.0
7.185628742514966 0.0 0.0
7.125748502994009 0.0 0.0
7.065868263473051 0.0 0.0
7.005988023952092 0.0 0.0
6.946107784431135 0.0 0.0
6.886227544910177 0.0 0.0
6.826347305389219 0.0 0.0
6.766467065868261 0.0 0.0
6.706586826347303 0.0 0.0
6.646706586826344 0.0 0.0
6.586826347305387 0.0 0.0
6.526946107784428 0.0 0.0
6.46706586826347 0.0 0.0
6.407185628742512 0.0 0.0
6.347305389221554 0.0 0.0
6.287425149700596 0.0 0.0
6.227544910179638 0.0 0.0
6.16766467065868 0.0 0.0
6.107784431137722 0.0 0.0
6.047904191616764 0.0 0.0
5.988023952095805 0.0 0.0
5.928143712574848 0.0 0.0
5.868263473053889 0.0 0.0
5.808383233532932 0.0 0.0
5.748502994011973 0.0 0.0
5.688622754491016 0.0 0.0
5.628742514970057 0.0 0.0
5.568862275449099 0.0 0.0
5.508982035928141 0.0 0.0
5.449101796407183 0.0 0.0
5.389221556886225 0.0 0.0
5.329341317365267 0.0 0.0
5.269461077844309 0.0 0.0
5.209580838323351 0.0 0.0
5.149700598802393 0.0 0.0
5.089820359281434 0.0 0.0
5.029940119760477 0.0 0.0
4.970059880239518 0.0 0.0
4.91017964071856 0.0 0.0
4.850299401197602 0.0 0.0
4.790419161676644 0.0 0.0
4.730538922155686 0.0 0.0
4.670658682634729 0.0 0.0
4.610778443113769 0.0 0.0
4.550898203592812 0.0 0.0
4.491017964071854 0.0 0.0
4.431137724550896 0.0 0.0
4.371257485029938 0.0 0.0
4.31137724550898 0.0 0.0
4.251497005988022 0.0 0.0
4.191616766467064 0.0 0.0
4.131736526946106 0.0 0.0
4.071856287425147 0.0 0.0
4.01197604790419 0.0 0.0
3.952095808383231 0.0 0.0
3.892215568862274 0.0 0.0
3.832335329341316 0.0 0.0
3.772455089820358 0.0 0.0
3.712574850299399 0.0 0.0
3.652694610778441 0.0 0.0
3.592814371257483 0.0 0.0
3.532934131736526 0.0 0.0
3.473053892215567 0.0 0.0
3.41317365269461 0.0 0.0
3.353293413173652 0.0 0.0
3.293413173652693 0.0 0.0
3.233532934131736 0.0 0.0
3.173652694610777 0.0 0.0
3.113772455089819 0.0 0.0
3.053892215568861 0.0 0.0
2.994011976047903 0.0 0.0
2.934131736526945 0.0 0.0
2.874251497005988 0.0 0.0
2.814371257485028 0.0 0.0
2.754491017964071 0.0 0.0
2.694610778443113 0.0 0.0
2.634730538922155 0.0 0.0
2.574850299401197 0.0 0.0
2.514970059880238 0.0 0.0
2.455089820359281 0.0 0.0
2.395209580838323 0.0 0.0
2.335329341317365 0.0 0.0
2.275449101796406 0.0 0.0
2.215568862275448 0.0 0.0
2.15568862275449 0.0 0.0
2.095808383233532 0.0 0.0
2.035928143712574 0.0 0.0
1.976047904191615 0.0 0.0
1.916167664670658 0.0 0.0
1.8562874251497 0.0 0.0
1.796407185628741 0.0 0.0
1.736526946107784 0.0 0.0
1.676646706586826 0.0 0.0
1.616766467065867 0.0 0.0
1.55688622754491 0.0 0.0
1.49700598802395 0.0 0.0
1.437125748502995 0.0 0.0
1.377245508982035 0.0 0.0
1.317365269461078 0.0 0.0
1.257485029940119 0.0 0.0
1.19760479041916 0.0 0.0
1.137724550898204 0.0 0.0
1.077844311377245 0.0 0.0
1.017964071856287 0.0 0.0
0.958083832335328 0.0 0.0
0.8982035928143723 0.0 0.0
0.8383233532934131 0.0 0.0
0.7784431137724539 0.0 0.0
0.7185628742514965 0.0 0.0
0.658682634730539 0.0 0.0
0.5988023952095816 0.0 0.0
0.5389221556886223 0.0 0.0
0.4790419161676631 0.0 0.0
0.4191616766467074 0.0 0.0
0.3592814371257482 0.0 0.0
0.2994011976047908 0.0 0.0
0.2395209580838316 0.0 0.0
0.1796407185628741 0.0 0.0
0.1197604790419167 0.0 0.0
0.05988023952095922 0.0 0.0
0.0 0.0588235294116454 0.0
0.0 0.1176470588233168 0.0
0.0 0.1764705882349203 0.0
0.0 0.2352941176465135 0.0
0.0 0.2941176470581066 0.0
0.0 0.3529411764696997 0.0
0.0 0.4117647058812929 0.0
0.0 0.4705882352928861 0.0
0.0 0.5294117647046425 0.0
0.0 0.5882352941165623 0.0
0.0 0.6470588235284821 0.0
0.0 0.7058823529404019 0.0
0.0 0.7647058823523216 0.0
0.0 0.8235294117642414 0.0
0.0 0.8823529411761613 0.0
0.0 0.941176470588081 0.0
9.496671432578891 0.5021202775764965 0.0
0.503328567417594 0.502120277573701 0.0
8.960949321310713 0.5028360638807292 0.0
1.039050678683441 0.5028360638815292 0.0
8.421726050444478 0.5013914029598455 0.0
1.578273949553219 0.5013914029599852 0.0
2.110012838156869 0.501717680037117 0.0
[...]
POINT_DATA 11134
VECTORS vector double
1.0 0.0 0.0
0.0 0.0 0.0
0.0 0.0 0.0
0.0 0.0 0.0
0.0 0.0 0.0
1.0 0.0 0.0
0.0 0.0 0.0
0.0 0.0 0.0
0.0 0.0 0.0
0.0 0.0 0.0
0.0 0.0 0.0
0.0 0.0 0.0
0.0 0.0 0.0
0.0 0.0 0.0
0.0 0.0 0.0
0.0 0.0 0.0
0.0 0.0 0.0
0.0 0.0 0.0
0.0 0.0 0.0
0.0 0.0 0.0
0.0 0.0 0.0
0.0 0.0 0.0
0.0 0.0 0.0
0.0 0.0 0.0
0.0 0.0 0.0
0.0 0.0 0.0
0.0 0.0 0.0
0.0 0.0 0.0
0.0 0.0 0.0
0.0 0.0 0.0
0.0 0.0 0.0
0.0 0.0 0.0
0.0 0.0 0.0
0.0 0.0 0.0
0.0 0.0 0.0
0.0 0.0 0.0
0.0 0.0 0.0
0.0 0.0 0.0
0.0 0.0 0.0
0.0 0.0 0.0
0.0 0.0 0.0
0.0 0.0 0.0
0.0 0.0 0.0
0.0 0.0 0.0
0.0 0.0 0.0
0.0 0.0 0.0
0.0 0.0 0.0
0.0 0.0 0.0
0.0 0.0 0.0
0.0 0.0 0.0
0.0 0.0 0.0
0.0 0.0 0.0
0.0 0.0 0.0
0.0 0.0 0.0
0.0 0.0 0.0
0.0 0.0 0.0
0.0 0.0 0.0
0.0 0.0 0.0
0.0 0.0 0.0
0.0 0.0 0.0
0.0 0.0 0.0
0.0 0.0 0.0
0.0 0.0 0.0
0.0 0.0 0.0
0.0 0.0 0.0
0.0 0.0 0.0
0.0 0.0 0.0
0.0 0.0 0.0
0.0 0.0 0.0
0.0 0.0 0.0
0.0 0.0 0.0
0.0 0.0 0.0
0.0 0.0 0.0
0.0 0.0 0.0
0.0 0.0 0.0
0.0 0.0 0.0
0.0 0.0 0.0
0.0 0.0 0.0
0.0 0.0 0.0
0.0 0.0 0.0
0.0 0.0 0.0
0.0 0.0 0.0
0.0 0.0 0.0
0.0 0.0 0.0
0.0 0.0 0.0
0.0 0.0 0.0
0.0 0.0 0.0
0.0 0.0 0.0
0.0 0.0 0.0
0.0 0.0 0.0
0.0 0.0 0.0
0.0 0.0 0.0
0.0 0.0 0.0
0.0 0.0 0.0
0.0 0.0 0.0
0.0 0.0 0.0
0.0 0.0 0.0
0.0 0.0 0.0
0.0 0.0 0.0
0.0 0.0 0.0
0.0 0.0 0.0
0.0 0.0 0.0
0.0 0.0 0.0
0.0 0.0 0.0
0.0 0.0 0.0
0.0 0.0 0.0
0.0 0.0 0.0
0.0 0.0 0.0
0.0 0.0 0.0
0.0 0.0 0.0
0.0 0.0 0.0
0.0 0.0 0.0
0.0 0.0 0.0
0.0 0.0 0.0
0.0 0.0 0.0
0.0 0.0 0.0
0.0 0.0 0.0
0.0 0.0 0.0
0.0 0.0 0.0
0.0 0.0 0.0
0.0 0.0 0.0
0.0 0.0 0.0
0.0 0.0 0.0
0.0 0.0 0.0
0.0 0.0 0.0
0.0 0.0 0.0
0.0 0.0 0.0
0.0 0.0 0.0
0.0 0.0 0.0
0.0 0.0 0.0
0.0 0.0 0.0
0.0 0.0 0.0
0.0 0.0 0.0
0.0 0.0 0.0
0.0 0.0 0.0
0.0 0.0 0.0
0.0 0.0 0.0
0.0 0.0 0.0
0.0 0.0 0.0
0.0 0.0 0.0
0.0 0.0 0.0
0.0 0.0 0.0
0.0 0.0 0.0
0.0 0.0 0.0
0.0 0.0 0.0
0.0 0.0 0.0
0.0 0.0 0.0
0.0 0.0 0.0
0.0 0.0 0.0
0.0 0.0 0.0
0.0 0.0 0.0
0.0 0.0 0.0
0.0 0.0 0.0
0.0 0.0 0.0
0.0 0.0 0.0
0.0 0.0 0.0
0.0 0.0 0.0
0.0 0.0 0.0
0.0 0.0 0.0
0.0 0.0 0.0
0.0 0.0 0.0
0.0 0.0 0.0
0.0 0.0 0.0
0.0 0.0 0.0
0.0 0.0 0.0
0.0 0.0 0.0
0.0 0.0 0.0
0.0 0.0 0.0
0.0 0.0 0.0
0.0 0.0 0.0
0.0 0.0 0.0
0.413705176493 0.0675420976678 0.0
0.739592678358 0.0461996863453 0.0
0.967834399506 0.0295753400457 0.0
1.14135101464 0.014144844883 0.0
1.25146982489 0.00823510890954 0.0
1.29058878721 0.00611779832215 0.0
1.3145802099 0.00229834071887 0.0
1.32540131921 0.000457865774716 0.0
1.3246578454 -0.000657832123156 0.0
1.31563522177 -0.00283417413372 0.0
1.29253775497 -0.00563273948014 0.0
1.2418680005 -0.0140826812451 0.0
1.15331319792 -0.018296318892 0.0
0.997614560437 -0.0278222086845 0.0
0.767252000395 -0.0280682823073 0.0
0.409657511976 -0.0648178391427 0.0
0.0 0.0 0.0
0.0 0.0 0.0
0.0 0.0 0.0
0.0 0.0 0.0
0.0 0.0 0.0
0.0 0.0 0.0
0.0 0.0 0.0
0.0 0.0 0.0
0.0 0.0 0.0
0.0 0.0 0.0
0.0 0.0 0.0
0.0 0.0 0.0
0.0 0.0 0.0
0.0 0.0 0.0
0.0 0.0 0.0
0.0 0.0 0.0
0.0 0.0 0.0
0.0 0.0 0.0
0.0 0.0 0.0
0.0 0.0 0.0
0.0 0.0 0.0
0.0 0.0 0.0
0.0 0.0 0.0
0.0 0.0 0.0
0.0 0.0 0.0
0.0 0.0 0.0
0.0 0.0 0.0
0.0 0.0 0.0
0.0 0.0 0.0
0.0 0.0 0.0
0.0 0.0 0.0
0.0 0.0 0.0
0.0 0.0 0.0
0.0 0.0 0.0
0.0 0.0 0.0
0.0 0.0 0.0
0.0 0.0 0.0
0.0 0.0 0.0
0.0 0.0 0.0
0.0 0.0 0.0
0.0 0.0 0.0
0.0 0.0 0.0
0.0 0.0 0.0
0.0 0.0 0.0
0.0 0.0 0.0
0.0 0.0 0.0
0.0 0.0 0.0
0.0 0.0 0.0
0.0 0.0 0.0
0.0 0.0 0.0
0.0 0.0 0.0
0.0 0.0 0.0
0.0 0.0 0.0
0.0 0.0 0.0
0.0 0.0 0.0
0.0 0.0 0.0
0.0 0.0 0.0
0.0 0.0 0.0
0.0 0.0 0.0
0.0 0.0 0.0
0.0 0.0 0.0
0.0 0.0 0.0
0.0 0.0 0.0
0.0 0.0 0.0
0.0 0.0 0.0
0.0 0.0 0.0
0.0 0.0 0.0
0.0 0.0 0.0
0.0 0.0 0.0
0.0 0.0 0.0
0.0 0.0 0.0
0.0 0.0 0.0
0.0 0.0 0.0
0.0 0.0 0.0
0.0 0.0 0.0
0.0 0.0 0.0
0.0 0.0 0.0
0.0 0.0 0.0
0.0 0.0 0.0
0.0 0.0 0.0
0.0 0.0 0.0
0.0 0.0 0.0
0.0 0.0 0.0
0.0 0.0 0.0
0.0 0.0 0.0
0.0 0.0 0.0
0.0 0.0 0.0
0.0 0.0 0.0
0.0 0.0 0.0
0.0 0.0 0.0
0.0 0.0 0.0
0.0 0.0 0.0
0.0 0.0 0.0
0.0 0.0 0.0
0.0 0.0 0.0
0.0 0.0 0.0
0.0 0.0 0.0
0.0 0.0 0.0
0.0 0.0 0.0
0.0 0.0 0.0
0.0 0.0 0.0
0.0 0.0 0.0
0.0 0.0 0.0
0.0 0.0 0.0
0.0 0.0 0.0
0.0 0.0 0.0
0.0 0.0 0.0
0.0 0.0 0.0
0.0 0.0 0.0
0.0 0.0 0.0
0.0 0.0 0.0
0.0 0.0 0.0
0.0 0.0 0.0
0.0 0.0 0.0
0.0 0.0 0.0
0.0 0.0 0.0
0.0 0.0 0.0
0.0 0.0 0.0
0.0 0.0 0.0
0.0 0.0 0.0
0.0 0.0 0.0
0.0 0.0 0.0
0.0 0.0 0.0
0.0 0.0 0.0
0.0 0.0 0.0
0.0 0.0 0.0
0.0 0.0 0.0
0.0 0.0 0.0
0.0 0.0 0.0
0.0 0.0 0.0
0.0 0.0 0.0
0.0 0.0 0.0
0.0 0.0 0.0
0.0 0.0 0.0
0.0 0.0 0.0
0.0 0.0 0.0
0.0 0.0 0.0
0.0 0.0 0.0
0.0 0.0 0.0
0.0 0.0 0.0
0.0 0.0 0.0
0.0 0.0 0.0
0.0 0.0 0.0
0.0 0.0 0.0
0.0 0.0 0.0
0.0 0.0 0.0
0.0 0.0 0.0
0.0 0.0 0.0
0.0 0.0 0.0
0.0 0.0 0.0
0.0 0.0 0.0
0.0 0.0 0.0
0.0 0.0 0.0
0.0 0.0 0.0
0.0 0.0 0.0
0.0 0.0 0.0
0.0 0.0 0.0
0.0 0.0 0.0
0.0 0.0 0.0
0.0 0.0 0.0
0.0 0.0 0.0
0.0 0.0 0.0
0.0 0.0 0.0
0.0 0.0 0.0
0.0 0.0 0.0
0.0 0.0 0.0
1.0 0.0 0.0
1.0 0.0 0.0
1.0 0.0 0.0
1.0 0.0 0.0
1.0 0.0 0.0
1.0 0.0 0.0
1.0 0.0 0.0
1.0 0.0 0.0
1.0 0.0 0.0
1.0 0.0 0.0
1.0 0.0 0.0
1.0 0.0 0.0
1.0 0.0 0.0
1.0 0.0 0.0
1.0 0.0 0.0
1.0 0.0 0.0
1.32779186487 0.000677107003904 0.0
1.14128558719 -0.000925779424698 0.0
1.32553286907 2.01469234225e-05 0.0
1.28859777663 -0.00108583279183 0.0
1.32493840793 -0.000797455307523 0.0
1.327070573 -0.000490857537991 0.0
1.32631691503 -0.0012650917078 0.0
1.32643116988 -0.00150170977218 0.0
1.32690554475 0.00223776498977 0.0
1.3269505669 -0.000659453810411 0.0
1.32514004232 7.37778382043e-05 0.0
1.32638415429 0.00073684464275 0.0
1.32553282441 -0.000648574182748 0.0
1.32480110469 0.00185808912906 0.0
1.32592544935 -0.000398304295026 0.0
1.32351510671 0.0011235979872 0.0
1.32361536397 -0.00110860328702 0.0
1.32367219586 -0.00187150635186 0.0
1.27381219045 0.000518808689438 0.0
1.25099122947 -0.0439272304752 0.0
1.27416393453 -0.000124915420338 0.0
1.24834987413 0.0461803816923 0.0
1.27148743891 -0.000953728768583 0.0
1.27489170433 -0.00460619565886 0.0
1.27102925073 -4.22747578755e-05 0.0
1.27114234639 0.000610501228042 0.0
1.27179906643 -0.000237322375332 0.0
1.27117923852 0.00219961268879 0.0
1.27293383715 -0.000702159171343 0.0
1.27224829853 0.00148150934489 0.0
1.26881737857 0.000605417154733 0.0
1.27089060067 0.00345058637688 0.0
1.27281277631 0.000770199963052 0.0
1.2719612946 0.000120367134937 0.0
1.27207142269 0.00107560709797 0.0
1.27203685665 0.0007905938023 0.0
1.26543628481 0.00162947120368 0.0
1.26737553122 0.00115402258444 0.0
1.26961997298 0.000319704090579 0.0
1.26919017243 0.000480524527055 0.0
1.26940766368 -0.000600395015869 0.0
1.27045270867 0.00229159607641 0.0
1.27092670785 0.00184158845074 0.0
1.26862207434 -0.00219010789286 0.0
1.275533762 -0.00169762070852 0.0
1.27664571114 -0.00189424154506 0.0
1.27229694737 0.00401256419341 0.0
1.26980450589 0.00143136914 0.0
1.26668888856 -0.00175320074358 0.0
1.26610087287 -0.00146283433366 0.0
1.24439837913 -0.00183338413601 0.0
1.24503388929 -0.000972084172715 0.0
1.112917385 -0.0875353418234 0.0
1.24047487318 0.00167966523932 0.0
1.25510822927 -0.00138277145263 0.0
1.10422116369 0.077574948773 0.0
1.18184703818 -0.000941625200757 0.0
1.20146981664 -0.0221424527397 0.0
1.16426552459 -0.00259916414116 0.0
1.16319916083 0.000251560791179 0.0
1.17816515312 -0.00454566258356 0.0
1.17989115889 -0.0042852468549 0.0
1.18172003572 0.00571388324774 0.0
1.16930289421 0.00314183456858 0.0
1.18181007653 -0.00252659203188 0.0
1.18454773755 -0.00215820988052 0.0
1.18007771571 0.00389123547094 0.0
1.18327165656 -0.00341462593293 0.0
1.18312113086 0.000495990346838 0.0
1.18288673128 -0.00250669497789 0.0
1.18274516449 0.000181347122101 0.0
1.18130774448 -0.00218002645042 0.0
1.18232487096 0.000741104073256 0.0
1.17341326784 -0.00338290565181 0.0
1.17981887117 -0.0043563198739 0.0
1.17883407867 0.00545464596042 0.0
1.18131966824 -0.00268344023013 0.0
1.17718100981 0.00415649222552 0.0
1.17245445804 0.00351976342671 0.0
1.17354625601 -0.00121157952008 0.0
1.18445849434 -0.00158748575319 0.0
1.18074797291 0.000182806006546 0.0
1.19304142419 0.0018067946723 0.0
1.21001993164 0.0228138160981 0.0
1.18728812425 -0.00134034363829 0.0
1.18793371541 -0.000663438873619 0.0
1.18186431526 0.00237120748297 0.0
1.21536931481 -0.0786360494117 0.0
1.16668697518 0.00210342071859 0.0
1.21212528657 0.0803380346993 0.0
1.12664978583 0.000800894014276 0.0
1.17299791367 -0.00133029222458 0.0
1.03676136021 -0.00498567117126 0.0
1.32737677463 -0.000131515097103 0.0
1.32505392214 -0.00111469914877 0.0
1.32375032878 -0.00135983547726 0.0
1.32522816644 -0.000282974269333 0.0
1.32624383939 -0.000198634952217 0.0
1.32314078332 0.00186013207588 0.0
1.32576972373 -0.000638189926098 0.0
1.32556926469 0.00144338988697 0.0
1.32534765695 -0.000421441689198 0.0
1.32392024935 -0.00053051810065 0.0
1.32563816645 -0.00118488727625 0.0
1.32635038766 -0.000446957279382 0.0
1.32574427247 0.00159775886253 0.0
1.3270996174 0.000663503948809 0.0
1.32768232164 0.00149086404521 0.0
1.32690231739 -0.00103783150715 0.0
1.24647972597 -0.000102664634761 0.0
1.32626610969 0.00106680580172 0.0
1.00073541546 -0.00214696942012 0.0
1.00442060557 0.0079679388576 0.0
1.00587726484 -0.00292629015669 0.0
1.00895012185 0.00402608426694 0.0
1.00642464998 -0.00332772276476 0.0
1.0068957997 0.00393678472223 0.0
1.00681999307 -0.00304950096633 0.0
1.00764547285 0.0027276532247 0.0
1.01067402327 -0.00195541658565 0.0
1.01169101289 -0.00283789106271 0.0
1.01236303318 0.0014115937923 0.0
1.00357101658 -3.77028191655e-05 0.0
1.00599978514 0.00130390753766 0.0
1.00114324877 0.00317967216367 0.0
1.0483006266 -0.0295001485069 0.0
0.992486109407 -0.000558067212739 0.0
0.992482584307 0.00128523840845 0.0
0.98205311702 0.00134959303763 0.0
0.981998203231 -0.00153458502 0.0
0.995442097437 -0.00564231144126 0.0
0.987862560063 0.00111109144473 0.0
0.989094199456 0.00217846999057 0.0
0.995762309896 0.000460861803437 0.0
0.991140511689 0.00101629975393 0.0
0.996265754063 -0.00114341881021 0.0
0.993074791636 0.000491838019679 0.0
0.994558693275 0.00190532142208 0.0
0.990386125238 0.00191346562752 0.0
0.992696340719 0.00056959678171 0.0
0.992507053929 -0.000667930971206 0.0
0.993759933904 0.00184836445133 0.0
0.987446649496 0.000156503945504 0.0
0.989861790473 -0.00029506459341 0.0
0.993225242761 -0.000807146547354 0.0
0.992344709771 0.00086414043772 0.0
0.991788044126 -0.000197421113143 0.0
0.991853139756 -0.00038558106211 0.0
0.992387203979 -0.00156067491798 0.0
0.993551692878 0.00245939546768 0.0
0.992778849656 -0.000735891212733 0.0
1.32599839717 0.00108271687396 0.0
1.19690629966 -0.00939664050102 0.0
0.98641574797 -0.000820825677293 0.0
1.32543183336 -0.00143800569811 0.0
1.32671492698 6.5643514811e-05 0.0
1.3260264339 0.000112262282079 0.0
1.32532165374 0.00265895775396 0.0
1.32465840649 0.000868141040053 0.0
1.32458381724 -0.000534531701112 0.0
1.32477933466 -0.000907609023408 0.0
1.32575744758 -0.00150468180618 0.0
1.32254454848 0.00198306008019 0.0
1.3250940589 -0.00015951219648 0.0
1.3248924983 -5.27324703667e-05 0.0
1.31282768097 -0.00310858565304 0.0
1.32451665202 -0.000441997515735 0.0
0.951849992655 0.00470419038556 0.0
0.954474617048 -0.000765002315813 0.0
0.971883426198 0.00438714036134 0.0
1.02026663776 0.0234935585644 0.0
1.12932692558 -0.142821663342 0.0
0.993305222206 0.00192449399325 0.0
0.975683585989 0.00909858567278 0.0
1.06603070367 -0.0510778819342 0.0
0.973688034353 -0.00585141212808 0.0
0.97261728345 0.00341544326485 0.0
0.980269450141 -0.000939824212613 0.0
0.984886460985 -5.94505096904e-05 0.0
0.979158519563 -0.0033570867445 0.0
0.982699198111 0.00368460186863 0.0
0.99443116752 -0.00271053231987 0.0
1.13262945225 0.14263103804 0.0
0.983133399396 -0.00363159625247 0.0
0.983265641306 0.003297999453 0.0
0.974015707208 -0.000426913993907 0.0
0.986784548806 0.00374718696395 0.0
0.964938367649 0.00533898257604 0.0
0.987261681495 0.00383051724143 0.0
0.96122695151 -0.004643557956 0.0
1.29477180471 -0.000744777138916 0.0
1.29131117757 0.014832343766 0.0
0.95498418222 0.00297774463468 0.0
0.961079791937 -0.00445901445762 0.0
1.29952955698 -0.00218543486526 0.0
1.30038781146 -9.20300490948e-05 0.0
0.95899200367 0.00317112583543 0.0
1.05331379407 0.0424823509195 0.0
1.29279316329 0.000632305588827 0.0
1.2952870735 0.000100757304545 0.0
1.2984206279 -0.00120695027735 0.0
1.30030349516 0.00197440334707 0.0
1.29890910682 0.000702190451395 0.0
1.29890817025 0.000768403052816 0.0
1.2987581705 0.00164182366658 0.0
1.29865438643 -0.000178514725801 0.0
1.29943984427 6.00394212347e-05 0.0
0.942425435062 0.00263435132454 0.0
0.915934263096 0.00199082245702 0.0
0.925630075027 -0.00105412150397 0.0
0.953529109744 0.000305629147492 0.0
0.932749851831 0.00493339634108 0.0
1.14579876143 -0.103971127726 0.0
0.936649765169 0.00152476363013 0.0
1.14884295681 0.0997505080802 0.0
1.30089387695 -0.000132494687813 0.0
1.30066110893 -0.00197393184576 0.0
1.30680188402 -0.000945607516505 0.0
1.30624988393 -0.00111671559866 0.0
1.30291870531 -0.000392824211274 0.0
1.30276342934 -0.000288517874072 0.0
1.30240650858 0.00301778026622 0.0
1.30230654111 -0.000419185996953 0.0
1.30241245044 0.00135540742516 0.0
1.29995844166 0.000321292258927 0.0
1.27745488595 -0.0267158999923 0.0
1.30392507773 0.00215883705474 0.0
1.30256349507 -0.000208639638234 0.0
1.30332140234 0.000162226350837 0.0
1.30176882012 -0.00167060764916 0.0
1.29876348232 -0.000331860093699 0.0
1.2987080869 -0.000929956615314 0.0
1.29858954552 0.00120875893516 0.0
1.29779272834 3.43463715153e-05 0.0
1.29921789236 -0.00318151799065 0.0
1.29635808494 0.0003109414334 0.0
1.29816330578 -0.000619224364782 0.0
1.29790485287 0.0007924562344 0.0
1.30019058562 0.000735198020852 0.0
1.29866753095 0.00211735179942 0.0
1.30040376501 -0.000477531436223 0.0
1.29949651807 0.001714797108 0.0
1.29877375575 -0.00147148800259 0.0
1.19996021799 0.0407425224954 0.0
1.30785427597 0.00198084445332 0.0
1.29855416517 -0.000929889544647 0.0
1.30017229111 -0.00250258277166 0.0
1.32267122084 0.000532287335956 0.0
1.09513938268 -0.0249652431966 0.0
1.02636762993 -0.0349423253764 0.0
1.30015772315 -3.68306600934e-05 0.0
1.02384674457 0.0345711573298 0.0
1.29609022709 -0.000970967151766 0.0
1.29606457627 -0.000532503096906 0.0
1.14295911969 0.0563061640246 0.0
1.30689981155 -0.00120965914258 0.0
1.3069138107 0.000918438990936 0.0
1.30067719712 0.00141278096749 0.0
1.2997922415 0.000992133511531 0.0
1.3071839024 -0.0014055270908 0.0
1.30949410108 -0.000750891836196 0.0
1.27890936622 0.0217141030858 0.0
1.30864107187 0.000967934919028 0.0
1.28185304667 -0.00302971041425 0.0
1.28187355174 0.000105554745725 0.0
1.28178420526 -0.00191095023966 0.0
1.28056113981 0.00428490180752 0.0
1.28122169394 -0.0013217841145 0.0
1.28150632533 0.000136608147759 0.0
1.27903503712 0.000182165390619 0.0
1.28171596906 0.000448519345656 0.0
1.28130285113 0.000490649862796 0.0
1.28162117446 -0.00318771108407 0.0
1.28269569107 -5.81516448111e-05 0.0
1.27763023135 -0.0127521659026 0.0
1.27240730708 -0.00160292886422 0.0
1.32298367747 -0.00161844940471 0.0
1.32456370612 3.04049942724e-05 0.0
1.18246762154 -0.0347579112574 0.0
1.31363074822 0.000815651529257 0.0
0.799259270882 0.00367257114794 0.0
0.80149377358 -0.00249485848852 0.0
1.27462986272 0.00150420889912 0.0
1.15794591194 -0.0699008344994 0.0
0.782724985825 0.00547324509545 0.0
0.772890957854 0.000261219847882 0.0
0.749739250634 0.00117288605379 0.0
0.745022021071 0.00130506672358 0.0
0.747295145913 0.00246715655417 0.0
0.744515127826 0.00328669204601 0.0
0.744887254537 0.00113202574348 0.0
0.742400193433 0.00278412746863 0.0
0.746015203123 0.00164374518083 0.0
0.717173648021 0.00459728578574 0.0
0.714528776767 -0.00102810302298 0.0
0.788819056417 -0.00109990796224 0.0
0.793113042909 0.00128317381633 0.0
0.807527613539 -0.00131291775378 0.0
0.829897870089 -0.0140220423766 0.0
0.789293940625 0.00683690667587 0.0
0.793827363117 -0.00359176253015 0.0
0.733292789358 -0.0073849249187 0.0
0.731308842172 0.00185242141138 0.0
0.803538448067 -0.00331089255377 0.0
0.808589055221 -0.00231407830452 0.0
0.81250290816 0.000277216148497 0.0
0.817409509853 -0.00344024204258 0.0
0.818770570596 -0.00273556945463 0.0
0.817619157578 -0.00213663002573 0.0
0.817082021532 -0.00290890836153 0.0
0.817418154932 -0.00211057959435 0.0
0.816948164069 -0.0026489884237 0.0
0.806259689763 -5.78815838882e-05 0.0
0.79962568519 1.23020781624e-05 0.0
1.31811254536 -8.93561208682e-05 0.0
1.07581289418 0.0316801001826 0.0
0.722815874442 -0.00208676296866 0.0
0.861497934252 -0.0303058136335 0.0
0.752530222598 0.00133957947514 0.0
0.89765468325 0.0403748033397 0.0
1.30208635134 -0.000909510452687 0.0
1.3023007096 -0.00291080281536 0.0
1.30236738736 -0.000653259572261 0.0
1.29112263966 -0.0184686427991 0.0
1.23863300673 -0.000543278456411 0.0
1.23305709871 -0.0589016483943 0.0
0.741040903499 0.00240938595137 0.0
1.30246809182 0.00228696051389 0.0
1.30393210251 -0.000644268234766 0.0
1.30205784781 -0.000640533211794 0.0
1.30330106461 0.000349525076086 0.0
1.30254013662 -0.00129981776117 0.0
1.30110002137 0.00114565929995 0.0
1.30227653665 -0.000819658991462 0.0
0.756792531391 0.000142959098105 0.0
0.726221319184 0.00481387838288 0.0
1.07819515165 -0.121872825012 0.0
0.724124928248 -0.00490818353159 0.0
1.07979750563 0.1200697598 0.0
0.714511191429 -0.000505904920508 0.0
0.715068142566 0.00161747927805 0.0
0.702274737665 0.01068824955 0.0
0.698878734953 -0.00849148741911 0.0
0.745002560032 0.00838952605457 0.0
0.751525511816 -0.00564620572393 0.0
0.704917336519 -0.00842308186235 0.0
0.705607436511 0.0115999109106 0.0
0.7045670593 -0.00852010880644 0.0
0.705818155737 0.0105741196698 0.0
0.704590992096 0.0108987119047 0.0
0.696317029838 -0.00649972262859 0.0
0.698290715431 0.00312821497991 0.0
0.695939614462 0.00659018445342 0.0
0.702414939037 -0.00875789220778 0.0
0.69375643712 0.00800763342112 0.0
0.69772159253 -0.00973610473898 0.0
0.696149524104 0.00838531066615 0.0
0.698117948699 -0.00999774875518 0.0
0.705714510786 -0.00667954565772 0.0
1.32277789529 -0.00015826516111 0.0
1.32090554203 -0.00033005693563 0.0
1.31572587661 0.00380089677079 0.0
1.32150592753 0.000492142471646 0.0
1.32075449073 0.0021937999119 0.0
1.32083759185 -4.19888090852e-05 0.0
1.32098152695 0.000920258179123 0.0
1.32167345997 0.00246733988972 0.0
1.32204612172 8.37935545421e-06 0.0
1.32165223897 -0.00200614837356 0.0
1.32178678558 -0.000687324447694 0.0
1.32266128589 0.00120520496732 0.0
1.32157768659 -0.00167506982127 0.0
1.22467722353 0.0135428812987 0.0
1.32419895251 0.00143307274515 0.0
1.24083334034 0.0015859108066 0.0
1.24887519764 0.035601623711 0.0
1.23659131896 -0.000617515578068 0.0
1.23774393083 -0.00222727784754 0.0
1.23908279155 0.00166002755808 0.0
1.2357502939 -0.00132292410165 0.0
1.31134811884 -0.00140621423366 0.0
1.31346805379 -7.01824927647e-05 0.0
0.62809765661 -0.000793480193744 0.0
0.632674538549 -0.00170305068595 0.0
0.709000410298 -0.000103485134162 0.0
0.674139179206 0.00285841637093 0.0
0.642396751548 0.00393036149198 0.0
0.643774979831 -0.00261284565982 0.0
0.630631184989 0.00252029543416 0.0
0.634051042571 -0.00157836056639 0.0
0.629797994319 0.00132946186681 0.0
0.63335407398 -0.000761683117516 0.0
0.631580893288 0.00125022598346 0.0
0.631436684394 -0.000597013666947 0.0
0.625766492349 0.00225578083529 0.0
0.622047388802 -0.00187809718058 0.0
0.622455611712 0.00210204834787 0.0
1.22821970273 0.000201214796157 0.0
1.22232601035 -0.00116574919732 0.0
0.702024334148 -0.008528978789 0.0
0.702913738123 0.0103352200855 0.0
1.01191766175 -0.00667338866026 0.0
1.32617649419 -0.000123894882302 0.0
1.31205823768 -0.000171288101184 0.0
1.31335013392 0.00155188666703 0.0
0.646507366551 -0.00995396198797 0.0
1.31209934668 0.00156973444572 0.0
1.31181468218 -0.000576283376437 0.0
1.31153818354 0.00275141229971 0.0
1.312048584 -0.00101917729475 0.0
1.31202452146 -0.000806682857303 0.0
0.652733447895 -0.00638627752527 0.0
0.648191123961 0.00384554364755 0.0
0.650935673654 -0.00528633484218 0.0
0.650228254703 0.00327662710054 0.0
0.658581311254 0.00403792740733 0.0
0.677100952288 0.00357113806139 0.0
0.701800632609 0.000344110278012 0.0
0.703653644525 -0.00162062218747 0.0
0.705454818797 0.00255374114132 0.0
0.767548209945 -0.0181162776926 0.0
0.688503961279 -0.000299092093636 0.0