# vtk DataFile Version 2.0
2D Simulation Python
ASCII
DATASET UNSTRUCTURED_GRID
FIELD FieldData 1
NODES 1 2 int
11134 7299

POINTS 11134 double
0.0 1.0 0.0
1.725 1.0 0.0
8.275 1.0 0.0
10.0 1.0 0.0
10.0 0.0 0.0
0.0 0.0 0.0
0.05948275862057954 1.0 0.0
0.1189655172411507 1.0 0.0
0.1784482758617532 1.0 0.0
0.2379310344823185 1.0 0.0
0.2974137931028384 1.0 0.0
0.3568965517233564 1.0 0.0
0.4163793103438745 1.0 0.0
0.475862068964385 1.0 0.0
0.535344827584889 1.0 0.0
0.5948275862053855 1.0 0.0
0.654310344825882 1.0 0.0
0.7137931034463786 1.0 0.0
0.7732758620668752 1.0 0.0
0.8327586206874149 1.0 0.0
0.8922413793081027 1.0 0.0
0.9517241379289384 1.0 0.0
1.011206896549752 1.0 0.0
1.070689655170612 1.0 0.0
1.130172413791474 1.0 0.0
1.189655172412335 1.0 0.0
1.249137931033183 1.0 0.0
1.308620689654105 1.0 0.0
1.368103448274985 1.0 0.0
1.427586206895818 1.0 0.0
1.487068965516628 1.0 0.0
1.546551724137449 1.0 0.0
1.606034482758285 1.0 0.0
1.665517241379139 1.0 0.0
1.784545454545345 1.0 0.0
1.844090909090676 1.0 0.0
1.903636363635991 1.0 0.0
1.963181818181336 1.0 0.0
2.022727272726716 1.0 0.0
2.082272727272112 1.0 0.0
2.141818181817408 1.0 0.0
2.201363636362702 1.0 0.0
2.260909090908037 1.0 0.0
2.320454545453433 1.0 0.0
2.379999999998759 1.0 0.0
2.439545454544053 1.0 0.0
2.499090909089358 1.0 0.0
2.558636363634754 1.0 0.0
2.618181818180109 1.0 0.0
2.677727272725404 1.0 0.0
2.737272727270631 1.0 0.0
2.796818181815906 1.0 0.0
2.856363636361191 1.0 0.0
2.915909090906408 1.0 0.0
2.975454545451703 1.0 0.0
3.034999999997049 1.0 0.0
3.094545454542377 1.0 0.0
3.154090909087591 1.0 0.0
3.21363636363288 1.0 0.0
3.273181818178196 1.0 0.0
3.332727272723555 1.0 0.0
3.392272727268849 1.0 0.0
3.451818181814208 1.0 0.0
3.511363636359524 1.0 0.0
3.570909090904812 1.0 0.0
3.630454545450026 1.0 0.0
3.689999999995355 1.0 0.0
3.749545454540702 1.0 0.0
3.809090909085996 1.0 0.0
3.868636363631291 1.0 0.0
3.928181818176585 1.0 0.0
3.987727272721861 1.0 0.0
4.047272727267021 1.0 0.0
4.106818181812208 1.0 0.0
4.166363636357625 1.0 0.0
4.225909090903122 1.0 0.0
4.285454545448432 1.0 0.0
4.34499999999356 1.0 0.0
4.404545454538917 1.0 0.0
4.464090909084414 1.0 0.0
4.523636363629791 1.0 0.0
4.583181818174936 1.0 0.0
4.642727272720208 1.0 0.0
4.702272727265705 1.0 0.0
4.761818181811142 1.0 0.0
4.821363636356348 1.0 0.0
4.880909090901557 1.0 0.0
4.940454545446997 1.0 0.0
4.999999999992493 1.0 0.0
5.059545454538018 1.0 0.0
5.119090909083717 1.0 0.0
5.17863636362933 1.0 0.0
5.238181818174827 1.0 0.0
5.297727272720321 1.0 0.0
5.357272727265989 1.0 0.0
5.416818181811662 1.0 0.0
5.476363636357158 1.0 0.0
5.535909090902654 1.0 0.0
5.595454545448262 1.0 0.0
5.65499999999396 1.0 0.0
5.714545454539491 1.0 0.0
5.774090909085032 1.0 0.0
5.83363636363093 1.0 0.0
5.893181818176673 1.0 0.0
5.952727272722171 1.0 0.0
6.012272727267668 1.0 0.0
6.071818181813491 1.0 0.0
6.131363636359353 1.0 0.0
6.190909090904849 1.0 0.0
6.250454545450346 1.0 0.0
6.309999999996052 1.0 0.0
6.369545454541951 1.0 0.0
6.429090909087529 1.0 0.0
6.488636363633026 1.0 0.0
6.548181818178611 1.0 0.0
6.60772727272451 1.0 0.0
6.667272727270209 1.0 0.0
6.726818181815705 1.0 0.0
6.786363636361202 1.0 0.0
6.845909090907071 1.0 0.0
6.905454545452889 1.0 0.0
6.964999999998385 1.0 0.0
7.024545454543881 1.0 0.0
7.084090909089378 1.0 0.0
7.143636363634876 1.0 0.0
7.20318181818037 1.0 0.0
7.262727272725868 1.0 0.0
7.322272727271365 1.0 0.0
7.381818181816859 1.0 0.0
7.441363636362357 1.0 0.0
7.500909090907854 1.0 0.0
7.560454545453348 1.0 0.0
7.619999999998846 1.0 0.0
7.679545454544343 1.0 0.0
7.739090909089839 1.0 0.0
7.798636363635335 1.0 0.0
7.858181818180832 1.0 0.0
7.917727272726328 1.0 0.0
7.977272727271824 1.0 0.0
8.036818181817441 1.0 0.0
8.09636363636334 1.0 0.0
8.155909090909008 1.0 0.0
8.215454545454504 1.0 0.0
8.334482758620055 1.0 0.0
8.393965517240051 1.0 0.0
8.453448275859904 1.0 0.0
8.51293103448045 1.0 0.0
8.572413793100301 1.0 0.0
8.631896551720153 1.0 0.0
8.6913793103407 1.0 0.0
8.750862068961245 1.0 0.0
8.810344827581792 1.0 0.0
8.869827586202339 1.0 0.0
8.929310344822884 1.0 0.0
8.988793103443431 1.0 0.0
9.048275862063978 1.0 0.0
9.107758620684523 1.0 0.0
9.16724137930507 1.0 0.0
9.226724137925617 1.0 0.0
9.286206896546162 1.0 0.0
9.345689655167401 1.0 0.0
9.405172413788595 1.0 0.0
9.46465517240963 1.0 0.0
9.524137931030667 1.0 0.0
9.583620689651704 1.0 0.0
9.643103448272907 1.0 0.0
9.702586206894148 1.0 0.0
9.762068965515388 1.0 0.0
9.821551724136627 1.0 0.0
9.881034482757867 1.0 0.0
9.940517241378963 1.0 0.0
10.0 0.9411764705879904 0.0
10.0 0.882352941175982 0.0
10.0 0.8235294117645425 0.0
10.0 0.764705882353186 0.0
10.0 0.7058823529418295 0.0
10.0 0.6470588235304731 0.0
10.0 0.5882352941191167 0.0
10.0 0.5294117647077601 0.0
10.0 0.4705882352960771 0.0
10.0 0.4117647058840672 0.0
10.0 0.3529411764720576 0.0
10.0 0.2941176470600479 0.0
10.0 0.2352941176480381 0.0
10.0 0.1764705882360285 0.0
10.0 0.1176470588240187 0.0
10.0 0.05882352941200908 0.0
9.940119760479043 0.0 0.0
9.880239520958083 0.0 0.0
9.820359281437126 0.0 0.0
9.760479041916167 0.0 0.0
9.70059880239521 0.0 0.0
9.640718562874252 0.0 0.0
9.580838323353293 0.0 0.0
9.520958083832335 0.0 0.0
9.461077844311376 0.0 0.0
9.401197604790418 0.0 0.0
9.34131736526946 0.0 0.0
9.281437125748502 0.0 0.0
9.221556886227543 0.0 0.0
9.161676646706585 0.0 0.0
9.101796407185628 0.0 0.0
9.041916167664668 0.0 0.0
8.982035928143711 0.0 0.0
8.922155688622752 0.0 0.0
8.862275449101794 0.0 0.0
8.802395209580837 0.0 0.0
8.742514970059878 0.0 0.0
8.68263473053892 0.0 0.0
8.622754491017961 0.0 0.0
8.562874251497004 0.0 0.0
8.502994011976044 0.0 0.0
8.443113772455087 0.0 0.0
8.38323353293413 0.0 0.0
8.32335329341317 0.0 0.0
8.263473053892213 0.0 0.0
8.203592814371254 0.0 0.0
8.143712574850296 0.0 0.0
8.083832335329337 0.0 0.0
8.02395209580838 0.0 0.0
7.964071856287422 0.0 0.0
7.904191616766464 0.0 0.0
7.844311377245505 0.0 0.0
7.784431137724548 0.0 0.0
7.72455089820359 0.0 0.0
7.664670658682631 0.0 0.0
7.604790419161674 0.0 0.0
7.544910179640715 0.0 0.0
7.485029940119757 0.0 0.0
7.425149700598799 0.0 0.0
7.36526946107784 0.0 0.0
7.305389221556883 0.0 0.0
7.245508982035925 0.0 0.0
7.185628742514966 0.0 0.0
7.125748502994009 0.0 0.0
7.065868263473051 0.0 0.0
7.005988023952092 0.0 0.0
6.946107784431135 0.0 0.0
6.886227544910177 0.0 0.0
6.826347305389219 0.0 0.0
6.766467065868261 0.0 0.0
6.706586826347303 0.0 0.0
6.646706586826344 0.0 0.0
6.586826347305387 0.0 0.0
6.526946107784428 0.0 0.0
6.46706586826347 0.0 0.0
6.407185628742512 0.0 0.0
6.347305389221554 0.0 0.0
6.287425149700596 0.0 0.0
6.227544910179638 0.0 0.0
6.16766467065868 0.0 0.0
6.107784431137722 0.0 0.0
6.047904191616764 0.0 0.0
5.988023952095805 0.0 0.0
5.928143712574848 0.0 0.0
5.868263473053889 0.0 0.0
5.808383233532932 0.0 0.0
5.748502994011973 0.0 0.0
5.688622754491016 0.0 0.0
5.628742514970057 0.0 0.0
5.568862275449099 0.0 0.0
5.508982035928141 0.0 0.0
5.449101796407183 0.0 0.0
5.389221556886225 0.0 0.0
5.329341317365267 0.0 0.0
5.269461077844309 0.0 0.0
5.209580838323351 0.0 0.0
5.149700598802393 0.0 0.0
5.089820359281434 0.0 0.0
5.029940119760477 0.0 0.0
4.970059880239518 0.0 0.0
4.91017964071856 0.0 0.0
4.850299401197602 0.0 0.0
4.790419161676644 0.0 0.0
4.730538922155686 0.0 0.0
4.670658682634729 0.0 0.0
4.610778443113769 0.0 0.0
4.550898203592812 0.0 0.0
4.491017964071854 0.0 0.0
4.431137724550896 0.0 0.0
4.371257485029938 0.0 0.0
4.31137724550898 0.0 0.0
4.251497005988022 0.0 0.0
4.191616766467064 0.0 0.0
4.131736526946106 0.0 0.0
4.071856287425147 0.0 0.0
4.01197604790419 0.0 0.0
3.952095808383231 0.0 0.0
3.892215568862274 0.0 0.0
3.832335329341316 0.0 0.0
3.772455089820358 0.0 0.0
3.712574850299399 0.0 0.0
3.652694610778441 0.0 0.0
3.592814371257483 0.0 0.0
3.532934131736526 0.0 0.0
3.473053892215567 0.0 0.0
3.41317365269461 0.0 0.0
3.353293413173652 0.0 0.0
3.293413173652693 0.0 0.0
3.233532934131736 0.0 0.0
3.173652694610777 0.0 0.0
3.113772455089819 0.0 0.0
3.053892215568861 0.0 0.0
2.994011976047903 0.0 0.0
2.934131736526945 0.0 0.0
2.874251497005988 0.0 0.0
2.814371257485028 0.0 0.0
2.754491017964071 0.0 0.0
2.694610778443113 0.0 0.0
2.634730538922155 0.0 0.0
2.574850299401197 0.0 0.0
2.514970059880238 0.0 0.0
2.455089820359281 0.0 0.0
2.395209580838323 0.0 0.0
2.335329341317365 0.0 0.0
2.275449101796406 0.0 0.0
2.215568862275448 0.0 0.0
2.15568862275449 0.0 0.0
2.095808383233532 0.0 0.0
2.035928143712574 0.0 0.0
1.976047904191615 0.0 0.0
1.916167664670658 0.0 0.0
1.8562874251497 0.0 0.0
1.796407185628741 0.0 0.0
1.736526946107784 0.0 0.0
1.676646706586826 0.0 0.0
1.616766467065867 0.0 0.0
1.55688622754491 0.0 0.0
1.49700598802395 0.0 0.0
1.437125748502995 0.0 0.0
1.377245508982035 0.0 0.0
1.317365269461078 0.0 0.0
1.257485029940119 0.0 0.0
1.19760479041916 0.0 0.0
1.137724550898204 0.0 0.0
1.077844311377245 0.0 0.0
1.017964071856287 0.0 0.0
0.958083832335328 0.0 0.0
0.8982035928143723 0.0 0.0
0.8383233532934131 0.0 0.0
0.7784431137724539 0.0 0.0
0.7185628742514965 0.0 0.0
0.658682634730539 0.0 0.0
0.5988023952095816 0.0 0.0
0.5389221556886223 0.0 0.0
0.4790419161676631 0.0 0.0
0.4191616766467074 0.0 0.0
0.3592814371257482 0.0 0.0
0.2994011976047908 0.0 0.0
0.2395209580838316 0.0 0.0
0.1796407185628741 0.0 0.0
0.1197604790419167 0.0 0.0
0.05988023952095922 0.0 0.0
0.0 0.0588235294116454 0.0
0.0 0.1176470588233168 0.0
0.0 0.1764705882349203 0.0
0.0 0.2352941176465135 0.0
0.0 0.2941176470581066 0.0
0.0 0.3529411764696997 0.0
0.0 0.4117647058812929 0.0
0.0 0.4705882352928861 0.0
0.0 0.5294117647046425 0.0
0.0 0.5882352941165623 0.0
0.0 0.6470588235284821 0.0
0.0 0.7058823529404019 0.0
0.0 0.7647058823523216 0.0
0.0 0.8235294117642414 0.0
0.0 0.8823529411761613 0.0
0.0 0.941176470588081 0.0
9.496671432578891 0.5021202775764965 0.0
0.503328567417594 0.502120277573701 0.0
8.960949321310713 0.5028360638807292 0.0
1.039050678683441 0.5028360638815292 0.0
8.421726050444478 0.5013914029598455 0.0
1.578273949553219 0.5013914029599852 0.0
2.110012838156869 0.501717680037117 0.0
[...]
POINT_DATA 11134
VECTORS vector double
1.0 0.0 0.0
0.0 0.0 0.0
0.0 0.0 0.0
0.0 0.0 0.0
0.0 0.0 0.0
1.0 0.0 0.0
0.0 0.0 0.0
0.0 0.0 0.0
0.0 0.0 0.0
0.0 0.0 0.0
0.0 0.0 0.0
0.0 0.0 0.0
0.0 0.0 0.0
0.0 0.0 0.0
0.0 0.0 0.0
0.0 0.0 0.0
0.0 0.0 0.0
0.0 0.0 0.0
0.0 0.0 0.0
0.0 0.0 0.0
0.0 0.0 0.0
0.0 0.0 0.0
0.0 0.0 0.0
0.0 0.0 0.0
0.0 0.0 0.0
0.0 0.0 0.0
0.0 0.0 0.0
0.0 0.0 0.0
0.0 0.0 0.0
0.0 0.0 0.0
0.0 0.0 0.0
0.0 0.0 0.0
0.0 0.0 0.0
0.0 0.0 0.0
0.0 0.0 0.0
0.0 0.0 0.0
0.0 0.0 0.0
0.0 0.0 0.0
0.0 0.0 0.0
0.0 0.0 0.0
0.0 0.0 0.0
0.0 0.0 0.0
0.0 0.0 0.0
0.0 0.0 0.0
0.0 0.0 0.0
0.0 0.0 0.0
0.0 0.0 0.0
0.0 0.0 0.0
0.0 0.0 0.0
0.0 0.0 0.0
0.0 0.0 0.0
0.0 0.0 0.0
0.0 0.0 0.0
0.0 0.0 0.0
0.0 0.0 0.0
0.0 0.0 0.0
0.0 0.0 0.0
0.0 0.0 0.0
0.0 0.0 0.0
0.0 0.0 0.0
0.0 0.0 0.0
0.0 0.0 0.0
0.0 0.0 0.0
0.0 0.0 0.0
0.0 0.0 0.0
0.0 0.0 0.0
0.0 0.0 0.0
0.0 0.0 0.0
0.0 0.0 0.0
0.0 0.0 0.0
0.0 0.0 0.0
0.0 0.0 0.0
0.0 0.0 0.0
0.0 0.0 0.0
0.0 0.0 0.0
0.0 0.0 0.0
0.0 0.0 0.0
0.0 0.0 0.0
0.0 0.0 0.0
0.0 0.0 0.0
0.0 0.0 0.0
0.0 0.0 0.0
0.0 0.0 0.0
0.0 0.0 0.0
0.0 0.0 0.0
0.0 0.0 0.0
0.0 0.0 0.0
0.0 0.0 0.0
0.0 0.0 0.0
0.0 0.0 0.0
0.0 0.0 0.0
0.0 0.0 0.0
0.0 0.0 0.0
0.0 0.0 0.0
0.0 0.0 0.0
0.0 0.0 0.0
0.0 0.0 0.0
0.0 0.0 0.0
0.0 0.0 0.0
0.0 0.0 0.0
0.0 0.0 0.0
0.0 0.0 0.0
0.0 0.0 0.0
0.0 0.0 0.0
0.0 0.0 0.0
0.0 0.0 0.0
0.0 0.0 0.0
0.0 0.0 0.0
0.0 0.0 0.0
0.0 0.0 0.0
0.0 0.0 0.0
0.0 0.0 0.0
0.0 0.0 0.0
0.0 0.0 0.0
0.0 0.0 0.0
0.0 0.0 0.0
0.0 0.0 0.0
0.0 0.0 0.0
0.0 0.0 0.0
0.0 0.0 0.0
0.0 0.0 0.0
0.0 0.0 0.0
0.0 0.0 0.0
0.0 0.0 0.0
0.0 0.0 0.0
0.0 0.0 0.0
0.0 0.0 0.0
0.0 0.0 0.0
0.0 0.0 0.0
0.0 0.0 0.0
0.0 0.0 0.0
0.0 0.0 0.0
0.0 0.0 0.0
0.0 0.0 0.0
0.0 0.0 0.0
0.0 0.0 0.0
0.0 0.0 0.0
0.0 0.0 0.0
0.0 0.0 0.0
0.0 0.0 0.0
0.0 0.0 0.0
0.0 0.0 0.0
0.0 0.0 0.0
0.0 0.0 0.0
0.0 0.0 0.0
0.0 0.0 0.0
0.0 0.0 0.0
0.0 0.0 0.0
0.0 0.0 0.0
0.0 0.0 0.0
0.0 0.0 0.0
0.0 0.0 0.0
0.0 0.0 0.0
0.0 0.0 0.0
0.0 0.0 0.0
0.0 0.0 0.0
0.0 0.0 0.0
0.0 0.0 0.0
0.0 0.0 0.0
0.0 0.0 0.0
0.0 0.0 0.0
0.0 0.0 0.0
0.0 0.0 0.0
0.0 0.0 0.0
0.0 0.0 0.0
0.0 0.0 0.0
0.0 0.0 0.0
0.0 0.0 0.0
0.0 0.0 0.0
0.0 0.0 0.0
0.0 0.0 0.0
0.36636516238 0.0606025940544 0.0
0.667711307405 0.0448597190144 0.0
0.898383355835 0.0317237073785 0.0
1.101948073 0.0182102250834 0.0
1.26309766316 0.0137287102782 0.0
1.33715622708 0.0139285445525 0.0
1.39024027771 0.00578904734032 0.0
1.42285027049 0.00176517406658 0.0
1.4217938981 -0.00173959523754 0.0
1.39560443977 -0.00687710086018 0.0
1.34175673178 -0.01122930388 0.0
1.24892954327 -0.0219261722821 0.0
1.11961328795 -0.0228915354919 0.0
0.93280715393 -0.030414965624 0.0
0.69644073303 -0.0262906180639 0.0
0.363511272499 -0.0579754441586 0.0
0.0 0.0 0.0
0.0 0.0 0.0
0.0 0.0 0.0
0.0 0.0 0.0
0.0 0.0 0.0
0.0 0.0 0.0
0.0 0.0 0.0
0.0 0.0 0.0
0.0 0.0 0.0
0.0 0.0 0.0
0.0 0.0 0.0
0.0 0.0 0.0
0.0 0.0 0.0
0.0 0.0 0.0
0.0 0.0 0.0
0.0 0.0 0.0
0.0 0.0 0.0
0.0 0.0 0.0
0.0 0.0 0.0
0.0 0.0 0.0
0.0 0.0 0.0
0.0 0.0 0.0
0.0 0.0 0.0
0.0 0.0 0.0
0.0 0.0 0.0
0.0 0.0 0.0
0.0 0.0 0.0
0.0 0.0 0.0
0.0 0.0 0.0
0.0 0.0 0.0
0.0 0.0 0.0
0.0 0.0 0.0
0.0 0.0 0.0
0.0 0.0 0.0
0.0 0.0 0.0
0.0 0.0 0.0
0.0 0.0 0.0
0.0 0.0 0.0
0.0 0.0 0.0
0.0 0.0 0.0
0.0 0.0 0.0
0.0 0.0 0.0
0.0 0.0 0.0
0.0 0.0 0.0
0.0 0.0 0.0
0.0 0.0 0.0
0.0 0.0 0.0
0.0 0.0 0.0
0.0 0.0 0.0
0.0 0.0 0.0
0.0 0.0 0.0
0.0 0.0 0.0
0.0 0.0 0.0
0.0 0.0 0.0
0.0 0.0 0.0
0.0 0.0 0.0
0.0 0.0 0.0
0.0 0.0 0.0
0.0 0.0 0.0
0.0 0.0 0.0
0.0 0.0 0.0
0.0 0.0 0.0
0.0 0.0 0.0
0.0 0.0 0.0
0.0 0.0 0.0
0.0 0.0 0.0
0.0 0.0 0.0
0.0 0.0 0.0
0.0 0.0 0.0
0.0 0.0 0.0
0.0 0.0 0.0
0.0 0.0 0.0
0.0 0.0 0.0
0.0 0.0 0.0
0.0 0.0 0.0
0.0 0.0 0.0
0.0 0.0 0.0
0.0 0.0 0.0
0.0 0.0 0.0
0.0 0.0 0.0
0.0 0.0 0.0
0.0 0.0 0.0
0.0 0.0 0.0
0.0 0.0 0.0
0.0 0.0 0.0
0.0 0.0 0.0
0.0 0.0 0.0
0.0 0.0 0.0
0.0 0.0 0.0
0.0 0.0 0.0
0.0 0.0 0.0
0.0 0.0 0.0
0.0 0.0 0.0
0.0 0.0 0.0
0.0 0.0 0.0
0.0 0.0 0.0
0.0 0.0 0.0
0.0 0.0 0.0
0.0 0.0 0.0
0.0 0.0 0.0
0.0 0.0 0.0
0.0 0.0 0.0
0.0 0.0 0.0
0.0 0.0 0.0
0.0 0.0 0.0
0.0 0.0 0.0
0.0 0.0 0.0
0.0 0.0 0.0
0.0 0.0 0.0
0.0 0.0 0.0
0.0 0.0 0.0
0.0 0.0 0.0
0.0 0.0 0.0
0.0 0.0 0.0
0.0 0.0 0.0
0.0 0.0 0.0
0.0 0.0 0.0
0.0 0.0 0.0
0.0 0.0 0.0
0.0 0.0 0.0
0.0 0.0 0.0
0.0 0.0 0.0
0.0 0.0 0.0
0.0 0.0 0.0
0.0 0.0 0.0
0.0 0.0 0.0
0.0 0.0 0.0
0.0 0.0 0.0
0.0 0.0 0.0
0.0 0.0 0.0
0.0 0.0 0.0
0.0 0.0 0.0
0.0 0.0 0.0
0.0 0.0 0.0
0.0 0.0 0.0
0.0 0.0 0.0
0.0 0.0 0.0
0.0 0.0 0.0
0.0 0.0 0.0
0.0 0.0 0.0
0.0 0.0 0.0
0.0 0.0 0.0
0.0 0.0 0.0
0.0 0.0 0.0
0.0 0.0 0.0
0.0 0.0 0.0
0.0 0.0 0.0
0.0 0.0 0.0
0.0 0.0 0.0
0.0 0.0 0.0
0.0 0.0 0.0
0.0 0.0 0.0
0.0 0.0 0.0
0.0 0.0 0.0
0.0 0.0 0.0
0.0 0.0 0.0
0.0 0.0 0.0
0.0 0.0 0.0
0.0 0.0 0.0
0.0 0.0 0.0
0.0 0.0 0.0
0.0 0.0 0.0
0.0 0.0 0.0
0.0 0.0 0.0
0.0 0.0 0.0
0.0 0.0 0.0
1.0 0.0 0.0
1.0 0.0 0.0
1.0 0.0 0.0
1.0 0.0 0.0
1.0 0.0 0.0
1.0 0.0 0.0
1.0 0.0 0.0
1.0 0.0 0.0
1.0 0.0 0.0
1.0 0.0 0.0
1.0 0.0 0.0
1.0 0.0 0.0
1.0 0.0 0.0
1.0 0.0 0.0
1.0 0.0 0.0
1.0 0.0 0.0
1.4255568005 0.000530881940808 0.0
1.14184038598 -0.000875033994211 0.0
1.42499778599 -0.00081809033172 0.0
1.30172449357 -0.00110909108312 0.0
1.42683048158 -0.00145289448216 0.0
1.38869367377 -0.000633343532937 0.0
1.42219723806 -0.000998723122661 0.0
1.42784399862 -0.00103993953268 0.0
1.42800673412 0.000588329557432 0.0
1.42717845977 0.000267060153044 0.0
1.42782181084 0.000684571394141 0.0
1.42619934953 0.00205905564259 0.0
1.42710889673 -0.000309409327957 0.0
1.42417423959 0.00159021693308 0.0
1.42681541446 -0.00113380408775 0.0
1.42243878095 -0.000285791246264 0.0
1.42500911821 -0.00073128818853 0.0
1.42098152091 -0.00119113919936 0.0
1.29998015251 -0.000926888228939 0.0
1.25259089875 -0.0467231292329 0.0
1.30166559475 -0.0031499774208 0.0
1.24983072386 0.0492975771709 0.0
1.29715870933 -0.00149595230456 0.0
1.29313347651 -0.0188163135269 0.0
1.29843566093 0.000919000823862 0.0
1.29855365561 0.00052437317108 0.0
1.29857152431 -0.00713308667816 0.0
1.2975509234 0.00121298117899 0.0
1.30007664324 -0.00153321504434 0.0
1.30047588421 -0.000917227704024 0.0
1.29361260038 4.55265183475e-05 0.0
1.29678260876 0.00265699010523 0.0
1.29828062399 -1.37273903938e-05 0.0
1.29801802236 0.00232432565484 0.0
1.29637046859 0.000558876523691 0.0
1.29873938228 0.0009694379304 0.0
1.28921802364 -0.00121324604413 0.0
1.29274290804 0.00169131453476 0.0
1.29691069404 0.000528602601116 0.0
1.29565337366 0.00177132710691 0.0
1.29522673431 -0.000380489322582 0.0
1.29720867969 0.00228484178581 0.0
1.2968266792 0.00212434541812 0.0
1.29369416925 -0.00194593302317 0.0
1.30655338762 -0.000228960705325 0.0
1.30730025303 0.00420285846762 0.0
1.28856068914 0.0180180459064 0.0
1.29393719735 0.00138053436779 0.0
1.28636482201 -0.00165069986933 0.0
1.28613960809 -0.00202943716739 0.0
1.24967980373 -0.00307971405366 0.0
1.25087532966 0.00181368383992 0.0
1.11347648138 -0.0876842815049 0.0
1.24196508528 0.00216714364961 0.0
1.26955984655 -5.83553056741e-08 0.0
1.10530976932 0.0777899370691 0.0
1.15397200922 -0.00016693801609 0.0
1.2009477323 -0.0320222326325 0.0
1.13035156493 -0.00179888808483 0.0
1.14660739021 -0.0109076930445 0.0
1.14837506414 -0.00507581514776 0.0
1.14992145984 -0.00470583944694 0.0
1.15486589996 0.00554703321187 0.0
1.13801530734 0.00328780579137 0.0
1.15649205618 -0.0029953339606 0.0
1.15779051389 -0.00194548072884 0.0
1.15204455427 0.00219966447128 0.0
1.15579987076 -0.0030726387316 0.0
1.15363370282 0.00192356285147 0.0
1.15429681551 -0.00186719592896 0.0
1.15539158485 0.00104843039797 0.0
1.15254274798 -0.00228401806323 0.0
1.15520909403 0.000648268660744 0.0
1.14263800348 -0.00474108927651 0.0
1.15177679562 -0.00381268224616 0.0
1.15155842548 0.00605304843968 0.0
1.15280708465 -0.00398702184486 0.0
1.14874265896 0.0051916381163 0.0
1.14390118765 0.00198734483433 0.0
1.14457597676 -0.00125307537555 0.0
1.15933079631 -2.05281707419e-06 0.0
1.15352606887 0.00108114487653 0.0
1.17060664363 0.000643471046338 0.0
1.20900877515 0.0312483554159 0.0
1.16247668162 -0.00213483339001 0.0
1.17685537606 0.0110006859766 0.0
1.15377368087 0.00263428516086 0.0
1.21564246393 -0.0796939972311 0.0
1.13592682883 0.00264049484234 0.0
1.21203718416 0.0814522017404 0.0
1.08471863942 0.00303562670554 0.0
1.14216707877 -0.00134171958501 0.0
1.03594882257 -0.00488779806793 0.0
1.4255257828 0.000507302705773 0.0
1.42335944829 -0.00134188456406 0.0
1.42411886896 -0.000443375298935 0.0
1.42599627256 -0.000175212341908 0.0
1.42718768377 -0.0010636878243 0.0
1.42216264214 -0.000187881214825 0.0
1.42791458976 0.000574285311137 0.0
1.42537546256 0.00185190804236 0.0
1.42679105467 -0.000606577541739 0.0
1.36513917839 -0.000369677167277 0.0
1.4278781704 -0.00170050142003 0.0
1.40598778882 1.51069679084e-06 0.0
1.42841125742 0.0010011569233 0.0
1.42702966489 0.00153448508949 0.0
1.42813037431 0.000122972937512 0.0
1.4279110419 -0.000169092665008 0.0
1.25285334887 0.000270844987172 0.0
1.42494438558 -9.49819945314e-05 0.0
0.933572306542 -0.00311642616541 0.0
0.985414270267 0.018833065948 0.0
0.939902672714 -0.00376180889771 0.0
0.946217708518 0.00488555197883 0.0
0.940196403002 -0.00397008222414 0.0
0.942693464541 0.00478695453695 0.0
0.942381037768 -0.00350960250688 0.0
0.942052800705 0.00381452768238 0.0
0.945069401358 -0.00338806187261 0.0
0.944491471228 -0.00253453823995 0.0
0.950585272526 0.00412437087886 0.0
0.969176686211 0.010251485649 0.0
0.939311376775 0.000249116605296 0.0
0.934772804534 0.00244586189709 0.0
1.04258867568 -0.0340319079472 0.0
0.924480285238 -0.000565605862831 0.0
0.937276611652 -0.00356642209606 0.0
0.914455450231 0.00183504922731 0.0
0.946749500083 -0.0114999485792 0.0
0.975636718878 -0.0164928492882 0.0
0.920288211401 0.00155616154545 0.0
0.921935961764 0.000986938168847 0.0
0.927970850168 6.6186888993e-05 0.0
0.925736828272 -0.000142957681587 0.0
0.92870658019 -0.00077976773878 0.0
0.921877840415 0.000464599982705 0.0
0.926376421977 0.00158027883395 0.0
0.92029546212 0.000467305334922 0.0
0.924482582837 0.000689363882575 0.0
0.924396896512 1.74409355977e-05 0.0
0.924620155027 0.00189327816659 0.0
0.924499850255 -0.00140523245698 0.0
0.921871825676 -0.000833486760658 0.0
0.923120050835 0.000195434484002 0.0
0.92298271965 0.00133878489994 0.0
0.924469577767 -0.000598597208457 0.0
0.92430674504 -0.000475460098411 0.0
0.923748214166 -0.0025633375029 0.0
0.925590677167 0.00244574326655 0.0
0.924190033546 -0.000483549869569 0.0
1.42169439106 0.00014557339488 0.0
1.19960245483 -0.009638032035 0.0
0.917448672775 -0.000942636489658 0.0
1.42509564135 -0.00142908711254 0.0
1.42380231457 3.73303438936e-05 0.0
1.42456876906 0.000640396332804 0.0
1.4257017443 0.00125489130142 0.0
1.42153338835 0.00187023722955 0.0
1.4240516389 0.000965460183605 0.0
1.41288711765 -0.00190506777863 0.0
1.4251690784 -0.00139031331261 0.0
1.4193107412 0.000613084164843 0.0
1.42369092466 -0.000346946701747 0.0
1.42338807092 -0.000479954649104 0.0
1.33753721303 -0.0057670844282 0.0
1.42233955741 -0.000631159894235 0.0
0.881893178423 0.00344339043152 0.0
0.883199213799 -0.00129013389676 0.0
0.90441026478 0.00359631087421 0.0
1.01463940573 0.0272633381031 0.0
1.12983691864 -0.142917306733 0.0
0.925861803659 0.00187987315551 0.0
0.90729677001 0.0101347663362 0.0
1.06395240051 -0.0528220163821 0.0
0.902004406741 -0.00617624500843 0.0
0.914034688145 0.00895506026953 0.0
0.911606225343 -0.000689046119615 0.0
0.916504404853 0.00050557248014 0.0
0.912354285127 -0.00314579641883 0.0
0.915238001252 0.0037029260485 0.0
0.929379215122 -0.00232040591861 0.0
1.13315603292 0.142814114442 0.0
0.917603238414 -0.00367331997856 0.0
0.915154497814 0.00432000803704 0.0
0.905910060702 -0.00125094486765 0.0
0.917987510737 0.00393806756851 0.0
0.89588609854 0.00475772793128 0.0
0.918860715348 0.00422637360722 0.0
0.890887530073 -0.00475211008081 0.0
1.3429602575 -0.00185760053979 0.0
1.30470705135 0.0243749469984 0.0
0.887762493228 0.00239681362493 0.0
0.890010509528 -0.0036305570602 0.0
1.35523381357 -0.00291596080817 0.0
1.35418898338 0.00448392512059 0.0
0.892427357654 0.00211952968164 0.0
1.05087964444 0.0442249269279 0.0
1.34161472948 0.000359354492104 0.0
1.32729878994 0.0126732727695 0.0
1.35256686558 -0.000581623348461 0.0
1.35515964587 0.00123430107874 0.0
1.35322636153 0.00113679907614 0.0
1.35466571498 0.00144007521084 0.0
1.35378994327 0.00127573847761 0.0
1.3533180665 0.000673311572166 0.0
1.35425251012 0.00038144577355 0.0
0.874900065594 0.00321495575298 0.0
0.846574554653 0.0033053689893 0.0
0.85277469378 -0.00056790029554 0.0
0.882007668618 0.000480300205671 0.0
0.85996495392 0.00524781082462 0.0
1.14596500077 -0.104198870111 0.0
0.868146487365 0.00258088541124 0.0
1.14896319967 0.0999868933355 0.0
1.35723890024 -8.28659294204e-05 0.0
1.35814379791 -0.00219137047883 0.0
1.37025844015 -0.000613633335909 0.0
1.3701886915 -0.00103301032556 0.0
1.36331437829 -0.000891579343275 0.0
1.36339950086 -0.000645666123026 0.0
1.36350584375 0.00196159828309 0.0
1.36471824569 0.000466582936235 0.0
1.36375347969 0.00249347286684 0.0
1.35239430053 1.71077059977e-05 0.0
1.28375881075 -0.031218037432 0.0
1.36565830494 0.00102083797659 0.0
1.36319602326 0.000682031491782 0.0
1.36326177399 0.00148925212832 0.0
1.36194706255 -0.00117631132388 0.0
1.35390716364 -0.00127136286257 0.0
1.35357523787 -0.000157302521522 0.0
1.3512576651 0.0016358268736 0.0
1.35116449849 0.00161809111286 0.0
1.33430837249 -0.0166491649939 0.0
1.35075454927 0.000642800556869 0.0
1.34287312277 -0.0103328643056 0.0
1.35298808881 0.000490590522814 0.0
1.35330707469 0.00166337433112 0.0
1.35278148561 -0.000190030595042 0.0
1.35486227617 0.000169808084115 0.0
1.3554037441 0.000759551316853 0.0
1.3571740481 -0.00105013045088 0.0
1.20118095339 0.0421425118427 0.0
1.37054549722 0.00156703488589 0.0
1.35154898426 0.000583257996869 0.0
1.35768695041 -0.00141117477835 0.0
1.40940537684 0.000688199591925 0.0
1.09487582529 -0.0251027730943 0.0
1.02650506015 -0.034750810605 0.0
1.35501529666 -0.00012902032988 0.0
1.02406088754 0.0343994022955 0.0
1.34800804026 -0.000340012141957 0.0
1.34439575743 -0.000818365520788 0.0
1.14327210356 0.056920646477 0.0
1.37458746899 -0.000362356427375 0.0
1.37428163568 -0.00101883496311 0.0
1.35963938486 0.001834972843 0.0
1.35659965497 -0.00158888510586 0.0
1.37589899979 -0.00169101514715 0.0
1.36199202888 0.00816442848545 0.0
1.28642684706 0.0263519775973 0.0
1.3758208603 -0.00102236370091 0.0
1.31893212665 -0.00358944526953 0.0
1.31724349867 0.000160762017219 0.0
1.31713519241 -0.00263279416726 0.0
1.31579131442 0.0034939437033 0.0
1.31541497959 -0.000939293304162 0.0
1.31697233225 0.00273184275824 0.0
1.31357768718 -0.00130727154403 0.0
1.31772282287 0.00147042166793 0.0
1.31735538448 0.000672422641885 0.0
1.31773191354 -0.00703675329648 0.0
1.32002001669 0.000997219277262 0.0
1.29025693724 -0.0243438091236 0.0
1.29869830661 -0.00171731623406 0.0
1.42418946637 -0.001195813695 0.0
1.42308213123 -0.000384604547323 0.0
1.18379568654 -0.0355785637208 0.0
1.38631870085 0.00044396702654 0.0
0.765683886874 0.0107489678041 0.0
0.726735107297 -0.00272625396893 0.0
1.30087982234 0.00227242400053 0.0
1.15850283469 -0.0705078054697 0.0
0.767216568502 0.0108340620271 0.0
0.701185755332 -0.000263894150765 0.0
0.678667367478 0.000713891030528 0.0
0.673542454015 0.000861228548893 0.0
0.678979168218 0.00218250509967 0.0
0.675374759879 0.00288501710067 0.0
0.674711307049 0.00114684721245 0.0
0.672212259375 0.00264525488899 0.0
0.675448981273 0.000857814258146 0.0
0.64715103679 0.00487776158084 0.0
0.642493782246 -0.000873837585414 0.0
0.734835396418 0.00390355792519 0.0
0.716291574929 0.00104123698499 0.0
0.734875192932 -0.00126113848714 0.0
0.818297052186 -0.0187923830311 0.0
0.718619180456 0.00521852699898 0.0
0.72017690615 -0.00280393633029 0.0
0.65963461317 -0.00626968735997 0.0
0.674072417392 -0.00193236016473 0.0
0.732587250167 -0.0038309592734 0.0
0.734377608205 -0.00117678583549 0.0
0.73836008667 -0.000279845125005 0.0
0.743510188502 -0.00325246992835 0.0
0.74145867258 -0.00168176421746 0.0
0.743554982548 -0.00204120917676 0.0
0.743328934624 -0.00205347950185 0.0
0.74214970273 -0.00200287058953 0.0
0.742895442036 -0.0023646244232 0.0
0.732197669517 -0.000631766699483 0.0
0.725976694014 -0.000337957017739 0.0
1.39850799163 0.00110348788582 0.0
1.07577964445 0.0318465223844 0.0
0.65097489635 -0.00195120707957 0.0
0.860312610809 -0.0305980870222 0.0
0.683858212961 0.00152775913982 0.0
0.896451725462 0.0407797364205 0.0
1.3589173936 -0.000995811892226 0.0
1.36198303065 -0.00399706563647 0.0
1.36036281651 -0.000510639077364 0.0
1.30276939422 -0.0256905451385 0.0
1.2385677232 -0.00139691055448 0.0
1.23292648976 -0.0606498315597 0.0
0.668389216699 0.00290948077374 0.0
1.36293186427 -0.000289111867172 0.0
1.36426242259 0.000478234934161 0.0
1.36323223863 -0.000113655602487 0.0
1.36240030693 0.00193398029783 0.0
1.36367956124 -0.00108569465855 0.0
1.36026078062 0.00127555120032 0.0
1.3635840471 -0.00175576381509 0.0
0.687378182692 0.000535721302443 0.0
0.653848021694 0.00433165524409 0.0
1.07803535136 -0.122076831052 0.0
0.654433750875 -0.00393333705349 0.0
1.07956488733 0.120235691822 0.0
0.642814687444 -0.0004275844004 0.0
0.680302751429 -0.0044137464703 0.0
0.630735801438 0.00936153521643 0.0
0.634580348461 -0.00929274992555 0.0
0.673349867647 0.0070760453765 0.0
0.677718500067 -0.0054562936116 0.0
0.633546012511 -0.00776103281586 0.0
0.63100238993 0.0100398830728 0.0
0.632503934191 -0.00750406139862 0.0
0.633356502629 0.0100083469527 0.0
0.633707240017 0.00966687255655 0.0
0.624125381359 -0.00572542516998 0.0
0.632424644601 0.00470520437511 0.0
0.625114959535 0.00639774858948 0.0
0.63028660318 -0.00814392758477 0.0
0.624766643492 0.00783236105407 0.0
0.627748406955 -0.00897204406384 0.0
0.627817506787 0.00805117467687 0.0
0.626567311251 -0.00900127393613 0.0
0.633877860753 -0.00605838743735 0.0
1.41704647611 -0.000438824200748 0.0
1.41124542313 -0.00107079845262 0.0
1.34494682103 0.00980837174446 0.0
1.41228330549 0.000725464451476 0.0
1.41420582823 0.000556360964691 0.0
1.41297789859 0.00175330793919 0.0
1.41127703473 0.0011647605491 0.0
1.41367771859 0.00202256510845 0.0
1.41191765275 0.000258153733235 0.0
1.41297839275 -0.00221364549663 0.0
1.40063880822 0.00313311168327 0.0
1.41258235473 0.00145824295694 0.0
1.41198246881 -0.00160429890625 0.0
1.22882743895 0.0145507730478 0.0
1.41669260294 0.000257113025826 0.0
1.24490719969 -5.8353015566e-05 0.0
1.24932171963 0.0412212140208 0.0
1.23889643859 -0.00027581287598 0.0
1.24524041569 0.00706233848537 0.0
1.24177654773 0.000109968731657 0.0
1.23822136112 -0.00116794948579 0.0
1.38658526496 -0.00219654284887 0.0
1.36522418935 -0.0090744931306 0.0
0.562025212273 -0.000258290105114 0.0
0.615251066649 -0.00579856984691 0.0
0.638785482737 0.000506427774554 0.0
0.609717988928 0.00253552591924 0.0
0.57479292257 0.00371869654232 0.0
0.596227501057 -0.00605350057859 0.0
0.563072580254 0.00184287403545 0.0
0.565236745374 -0.00126857135324 0.0
0.563142875401 0.000898415388627 0.0
0.565581566495 -9.85815208917e-05 0.0
0.562048801809 0.00110049127327 0.0
0.563880653591 -9.14698953934e-05 0.0
0.557572688457 0.00109847935433 0.0
0.558654946937 -0.00165507127987 0.0
0.556193001117 0.00158149955242 0.0
1.22330150969 0.000170251158334 0.0
1.21213113618 -0.00170937579871 0.0
0.631676280845 -0.00836276503066 0.0
0.631866474422 0.0092669204222 0.0
1.01157247369 -0.00662038565207 0.0
1.42266453518 0.000199912441088 0.0
1.3852953056 0.00114396518435 0.0
1.38755570304 -3.84734659861e-05 0.0
0.579202939217 -0.00865783972128 0.0
1.38567257178 0.00298837489166 0.0
1.38711974944 -0.000166420109336 0.0
1.38521853597 0.00270627552577 0.0
1.38591654507 -0.00121102061737 0.0
1.38529379107 -0.00175172346737 0.0
0.586217609647 -0.00606412205504 0.0
0.57958351019 0.00361893191902 0.0
0.584156334193 -0.00508760720993 0.0
0.581940852858 0.00346218850814 0.0
0.592057085456 0.00318087611767 0.0
0.667471392264 0.00634711059592 0.0
0.631715949411 0.00067206770095 0.0
0.633496920624 -0.00195376727043 0.0
0.634975676539 0.0020983102915 0.0
0.763901208589 -0.0194972850047 0.0
0.618580066244 0.000281702433786 0.0
0.615960188444 -0.00223128205319 0.0