# vtk DataFile Version 2.0
2D Simulation Python
ASCII
DATASET UNSTRUCTURED_GRID
FIELD FieldData 1
NODES 1 2 int
11134 7299

POINTS 11134 double
0.0 1.0 0.0
1.725 1.0 0.0
8.275 1.0 0.0
10.0 1.0 0.0
10.0 0.0 0.0
0.0 0.0 0.0
0.05948275862057954 1.0 0.0
0.1189655172411507 1.0 0.0
0.1784482758617532 1.0 0.0
0.2379310344823185 1.0 0.0
0.2974137931028384 1.0 0.0
0.3568965517233564 1.0 0.0
0.4163793103438745 1.0 0.0
0.475862068964385 1.0 0.0
0.535344827584889 1.0 0.0
0.5948275862053855 1.0 0.0
0.654310344825882 1.0 0.0
0.7137931034463786 1.0 0.0
0.7732758620668752 1.0 0.0
0.8327586206874149 1.0 0.0
0.8922413793081027 1.0 0.0
0.9517241379289384 1.0 0.0
1.011206896549752 1.0 0.0
1.070689655170612 1.0 0.0
1.130172413791474 1.0 0.0
1.189655172412335 1.0 0.0
1.249137931033183 1.0 0.0
1.308620689654105 1.0 0.0
1.368103448274985 1.0 0.0
1.427586206895818 1.0 0.0
1.487068965516628 1.0 0.0
1.546551724137449 1.0 0.0
1.606034482758285 1.0 0.0
1.665517241379139 1.0 0.0
1.784545454545345 1.0 0.0
1.844090909090676 1.0 0.0
1.903636363635991 1.0 0.0
1.963181818181336 1.0 0.0
2.022727272726716 1.0 0.0
2.082272727272112 1.0 0.0
2.141818181817408 1.0 0.0
2.201363636362702 1.0 0.0
2.260909090908037 1.0 0.0
2.320454545453433 1.0 0.0
2.379999999998759 1.0 0.0
2.439545454544053 1.0 0.0
2.499090909089358 1.0 0.0
2.558636363634754 1.0 0.0
2.618181818180109 1.0 0.0
2.677727272725404 1.0 0.0
2.737272727270631 1.0 0.0
2.796818181815906 1.0 0.0
2.856363636361191 1.0 0.0
2.915909090906408 1.0 0.0
2.975454545451703 1.0 0.0
3.034999999997049 1.0 0.0
3.094545454542377 1.0 0.0
3.154090909087591 1.0 0.0
3.21363636363288 1.0 0.0
3.273181818178196 1.0 0.0
3.332727272723555 1.0 0.0
3.392272727268849 1.0 0.0
3.451818181814208 1.0 0.0
3.511363636359524 1.0 0.0
3.570909090904812 1.0 0.0
3.630454545450026 1.0 0.0
3.689999999995355 1.0 0.0
3.749545454540702 1.0 0.0
3.809090909085996 1.0 0.0
3.868636363631291 1.0 0.0
3.928181818176585 1.0 0.0
3.987727272721861 1.0 0.0
4.047272727267021 1.0 0.0
4.106818181812208 1.0 0.0
4.166363636357625 1.0 0.0
4.225909090903122 1.0 0.0
4.285454545448432 1.0 0.0
4.34499999999356 1.0 0.0
4.404545454538917 1.0 0.0
4.464090909084414 1.0 0.0
4.523636363629791 1.0 0.0
4.583181818174936 1.0 0.0
4.642727272720208 1.0 0.0
4.702272727265705 1.0 0.0
4.761818181811142 1.0 0.0
4.821363636356348 1.0 0.0
4.880909090901557 1.0 0.0
4.940454545446997 1.0 0.0
4.999999999992493 1.0 0.0
5.059545454538018 1.0 0.0
5.119090909083717 1.0 0.0
5.17863636362933 1.0 0.0
5.238181818174827 1.0 0.0
5.297727272720321 1.0 0.0
5.357272727265989 1.0 0.0
5.416818181811662 1.0 0.0
5.476363636357158 1.0 0.0
5.535909090902654 1.0 0.0
5.595454545448262 1.0 0.0
5.65499999999396 1.0 0.0
5.714545454539491 1.0 0.0
5.774090909085032 1.0 0.0
5.83363636363093 1.0 0.0
5.893181818176673 1.0 0.0
5.952727272722171 1.0 0.0
6.012272727267668 1.0 0.0
6.071818181813491 1.0 0.0
6.131363636359353 1.0 0.0
6.190909090904849 1.0 0.0
6.250454545450346 1.0 0.0
6.309999999996052 1.0 0.0
6.369545454541951 1.0 0.0
6.429090909087529 1.0 0.0
6.488636363633026 1.0 0.0
6.548181818178611 1.0 0.0
6.60772727272451 1.0 0.0
6.667272727270209 1.0 0.0
6.726818181815705 1.0 0.0
6.786363636361202 1.0 0.0
6.845909090907071 1.0 0.0
6.905454545452889 1.0 0.0
6.964999999998385 1.0 0.0
7.024545454543881 1.0 0.0
7.084090909089378 1.0 0.0
7.143636363634876 1.0 0.0
7.20318181818037 1.0 0.0
7.262727272725868 1.0 0.0
7.322272727271365 1.0 0.0
7.381818181816859 1.0 0.0
7.441363636362357 1.0 0.0
7.500909090907854 1.0 0.0
7.560454545453348 1.0 0.0
7.619999999998846 1.0 0.0
7.679545454544343 1.0 0.0
7.739090909089839 1.0 0.0
7.798636363635335 1.0 0.0
7.858181818180832 1.0 0.0
7.917727272726328 1.0 0.0
7.977272727271824 1.0 0.0
8.036818181817441 1.0 0.0
8.09636363636334 1.0 0.0
8.155909090909008 1.0 0.0
8.215454545454504 1.0 0.0
8.334482758620055 1.0 0.0
8.393965517240051 1.0 0.0
8.453448275859904 1.0 0.0
8.51293103448045 1.0 0.0
8.572413793100301 1.0 0.0
8.631896551720153 1.0 0.0
8.6913793103407 1.0 0.0
8.750862068961245 1.0 0.0
8.810344827581792 1.0 0.0
8.869827586202339 1.0 0.0
8.929310344822884 1.0 0.0
8.988793103443431 1.0 0.0
9.048275862063978 1.0 0.0
9.107758620684523 1.0 0.0
9.16724137930507 1.0 0.0
9.226724137925617 1.0 0.0
9.286206896546162 1.0 0.0
9.345689655167401 1.0 0.0
9.405172413788595 1.0 0.0
9.46465517240963 1.0 0.0
9.524137931030667 1.0 0.0
9.583620689651704 1.0 0.0
9.643103448272907 1.0 0.0
9.702586206894148 1.0 0.0
9.762068965515388 1.0 0.0
9.821551724136627 1.0 0.0
9.881034482757867 1.0 0.0
9.940517241378963 1.0 0.0
10.0 0.9411764705879904 0.0
10.0 0.882352941175982 0.0
10.0 0.8235294117645425 0.0
10.0 0.764705882353186 0.0
10.0 0.7058823529418295 0.0
10.0 0.6470588235304731 0.0
10.0 0.5882352941191167 0.0
10.0 0.5294117647077601 0.0
10.0 0.4705882352960771 0.0
10.0 0.4117647058840672 0.0
10.0 0.3529411764720576 0.0
10.0 0.2941176470600479 0.0
10.0 0.2352941176480381 0.0
10.0 0.1764705882360285 0.0
10.0 0.1176470588240187 0.0
10.0 0.05882352941200908 0.0
9.940119760479043 0.0 0.0
9.880239520958083 0.0 0.0
9.820359281437126 0.0 0.0
9.760479041916167 0.0 0.0
9.70059880239521 0.0 0.0
9.640718562874252 0.0 0.0
9.580838323353293 0.0 0.0
9.520958083832335 0.0 0.0
9.461077844311376 0.0 0.0
9.401197604790418 0.0 0.0
9.34131736526946 0.0 0.0
9.281437125748502 0.0 0.0
9.221556886227543 0.0 0.0
9.161676646706585 0.0 0.0
9.101796407185628 0.0 0.0
9.041916167664668 0.0 0.0
8.982035928143711 0.0 0.0
8.922155688622752 0.0 0.0
8.862275449101794 0.0 0.0
8.802395209580837 0.0 0.0
8.742514970059878 0.0 0.0
8.68263473053892 0.0 0.0
8.622754491017961 0.0 0.0
8.562874251497004 0.0 0.0
8.502994011976044 0.0 0.0
8.443113772455087 0.0 0.0
8.38323353293413 0.0 0.0
8.32335329341317 0.0 0.0
8.263473053892213 0.0 0.0
8.203592814371254 0.0 0.0
8.143712574850296 0.0 0.0
8.083832335329337 0.0 0.0
8.02395209580838 0.0 0.0
7.964071856287422 0.0 0.0
7.904191616766464 0.0 0.0
7.844311377245505 0.0 0.0
7.784431137724548 0.0 0.0
7.72455089820359 0.0 0.0
7.664670658682631 0.0 0.0
7.604790419161674 0.0 0.0
7.544910179640715 0.0 0.0
7.485029940119757 0.0 0.0
7.425149700598799 0.0 0.0
7.36526946107784 0.0 0.0
7.305389221556883 0.0 0.0
7.245508982035925 0.0 0.0
7.185628742514966 0.0 0.0
7.125748502994009 0.0 0.0
7.065868263473051 0.0 0.0
7.005988023952092 0.0 0.0
6.946107784431135 0.0 0.0
6.886227544910177 0.0 0.0
6.826347305389219 0.0 0.0
6.766467065868261 0.0 0.0
6.706586826347303 0.0 0.0
6.646706586826344 0.0 0.0
6.586826347305387 0.0 0.0
6.526946107784428 0.0 0.0
6.46706586826347 0.0 0.0
6.407185628742512 0.0 0.0
6.347305389221554 0.0 0.0
6.287425149700596 0.0 0.0
6.227544910179638 0.0 0.0
6.16766467065868 0.0 0.0
6.107784431137722 0.0 0.0
6.047904191616764 0.0 0.0
5.988023952095805 0.0 0.0
5.928143712574848 0.0 0.0
5.868263473053889 0.0 0.0
5.808383233532932 0.0 0.0
5.748502994011973 0.0 0.0
5.688622754491016 0.0 0.0
5.628742514970057 0.0 0.0
5.568862275449099 0.0 0.0
5.508982035928141 0.0 0.0
5.449101796407183 0.0 0.0
5.389221556886225 0.0 0.0
5.329341317365267 0.0 0.0
5.269461077844309 0.0 0.0
5.209580838323351 0.0 0.0
5.149700598802393 0.0 0.0
5.089820359281434 0.0 0.0
5.029940119760477 0.0 0.0
4.970059880239518 0.0 0.0
4.91017964071856 0.0 0.0
4.850299401197602 0.0 0.0
4.790419161676644 0.0 0.0
4.730538922155686 0.0 0.0
4.670658682634729 0.0 0.0
4.610778443113769 0.0 0.0
4.550898203592812 0.0 0.0
4.491017964071854 0.0 0.0
4.431137724550896 0.0 0.0
4.371257485029938 0.0 0.0
4.31137724550898 0.0 0.0
4.251497005988022 0.0 0.0
4.191616766467064 0.0 0.0
4.131736526946106 0.0 0.0
4.071856287425147 0.0 0.0
4.01197604790419 0.0 0.0
3.952095808383231 0.0 0.0
3.892215568862274 0.0 0.0
3.832335329341316 0.0 0.0
3.772455089820358 0.0 0.0
3.712574850299399 0.0 0.0
3.652694610778441 0.0 0.0
3.592814371257483 0.0 0.0
3.532934131736526 0.0 0.0
3.473053892215567 0.0 0.0
3.41317365269461 0.0 0.0
3.353293413173652 0.0 0.0
3.293413173652693 0.0 0.0
3.233532934131736 0.0 0.0
3.173652694610777 0.0 0.0
3.113772455089819 0.0 0.0
3.053892215568861 0.0 0.0
2.994011976047903 0.0 0.0
2.934131736526945 0.0 0.0
2.874251497005988 0.0 0.0
2.814371257485028 0.0 0.0
2.754491017964071 0.0 0.0
2.694610778443113 0.0 0.0
2.634730538922155 0.0 0.0
2.574850299401197 0.0 0.0
2.514970059880238 0.0 0.0
2.455089820359281 0.0 0.0
2.395209580838323 0.0 0.0
2.335329341317365 0.0 0.0
2.275449101796406 0.0 0.0
2.215568862275448 0.0 0.0
2.15568862275449 0.0 0.0
2.095808383233532 0.0 0.0
2.035928143712574 0.0 0.0
1.976047904191615 0.0 0.0
1.916167664670658 0.0 0.0
1.8562874251497 0.0 0.0
1.796407185628741 0.0 0.0
1.736526946107784 0.0 0.0
1.676646706586826 0.0 0.0
1.616766467065867 0.0 0.0
1.55688622754491 0.0 0.0
1.49700598802395 0.0 0.0
1.437125748502995 0.0 0.0
1.377245508982035 0.0 0.0
1.317365269461078 0.0 0.0
1.257485029940119 0.0 0.0
1.19760479041916 0.0 0.0
1.137724550898204 0.0 0.0
1.077844311377245 0.0 0.0
1.017964071856287 0.0 0.0
0.958083832335328 0.0 0.0
0.8982035928143723 0.0 0.0
0.8383233532934131 0.0 0.0
0.7784431137724539 0.0 0.0
0.7185628742514965 0.0 0.0
0.658682634730539 0.0 0.0
0.5988023952095816 0.0 0.0
0.5389221556886223 0.0 0.0
0.4790419161676631 0.0 0.0
0.4191616766467074 0.0 0.0
0.3592814371257482 0.0 0.0
0.2994011976047908 0.0 0.0
0.2395209580838316 0.0 0.0
0.1796407185628741 0.0 0.0
0.1197604790419167 0.0 0.0
0.05988023952095922 0.0 0.0
0.0 0.0588235294116454 0.0
0.0 0.1176470588233168 0.0
0.0 0.1764705882349203 0.0
0.0 0.2352941176465135 0.0
0.0 0.2941176470581066 0.0
0.0 0.3529411764696997 0.0
0.0 0.4117647058812929 0.0
0.0 0.4705882352928861 0.0
0.0 0.5294117647046425 0.0
0.0 0.5882352941165623 0.0
0.0 0.6470588235284821 0.0
0.0 0.7058823529404019 0.0
0.0 0.7647058823523216 0.0
0.0 0.8235294117642414 0.0
0.0 0.8823529411761613 0.0
0.0 0.941176470588081 0.0
9.496671432578891 0.5021202775764965 0.0
0.503328567417594 0.502120277573701 0.0
8.960949321310713 0.5028360638807294 0.0
1.039050678683441 0.5028360638815293 0.0
8.421726050444477 0.5013914029598456 0.0
1.578273949553219 0.5013914029599852 0.0
2.110012838156869 0.501717680037117 0.0
[...]
POINT_DATA 11134
VECTORS vector double
1.0 0.0 0.0
0.0 0.0 0.0
0.0 0.0 0.0
0.0 0.0 0.0
1.21440711828 -5.14029535993e-06 0.0
1.0 0.0 0.0
0.0 0.0 0.0
0.0 0.0 0.0
0.0 0.0 0.0
0.0 0.0 0.0
0.0 0.0 0.0
0.0 0.0 0.0
0.0 0.0 0.0
0.0 0.0 0.0
0.0 0.0 0.0
0.0 0.0 0.0
0.0 0.0 0.0
0.0 0.0 0.0
0.0 0.0 0.0
0.0 0.0 0.0
0.0 0.0 0.0
0.0 0.0 0.0
0.0 0.0 0.0
0.0 0.0 0.0
0.0 0.0 0.0
0.0 0.0 0.0
0.0 0.0 0.0
0.0 0.0 0.0
0.0 0.0 0.0
0.0 0.0 0.0
0.0 0.0 0.0
0.0 0.0 0.0
0.0 0.0 0.0
0.0 0.0 0.0
0.0 0.0 0.0
0.0 0.0 0.0
0.0 0.0 0.0
0.0 0.0 0.0
0.0 0.0 0.0
0.0 0.0 0.0
0.0 0.0 0.0
0.0 0.0 0.0
0.0 0.0 0.0
0.0 0.0 0.0
0.0 0.0 0.0
0.0 0.0 0.0
0.0 0.0 0.0
0.0 0.0 0.0
0.0 0.0 0.0
0.0 0.0 0.0
0.0 0.0 0.0
0.0 0.0 0.0
0.0 0.0 0.0
0.0 0.0 0.0
0.0 0.0 0.0
0.0 0.0 0.0
0.0 0.0 0.0
0.0 0.0 0.0
0.0 0.0 0.0
0.0 0.0 0.0
0.0 0.0 0.0
0.0 0.0 0.0
0.0 0.0 0.0
0.0 0.0 0.0
0.0 0.0 0.0
0.0 0.0 0.0
0.0 0.0 0.0
0.0 0.0 0.0
0.0 0.0 0.0
0.0 0.0 0.0
0.0 0.0 0.0
0.0 0.0 0.0
0.0 0.0 0.0
0.0 0.0 0.0
0.0 0.0 0.0
0.0 0.0 0.0
0.0 0.0 0.0
0.0 0.0 0.0
0.0 0.0 0.0
0.0 0.0 0.0
0.0 0.0 0.0
0.0 0.0 0.0
0.0 0.0 0.0
0.0 0.0 0.0
0.0 0.0 0.0
0.0 0.0 0.0
0.0 0.0 0.0
0.0 0.0 0.0
0.0 0.0 0.0
0.0 0.0 0.0
0.0 0.0 0.0
0.0 0.0 0.0
0.0 0.0 0.0
0.0 0.0 0.0
0.0 0.0 0.0
0.0 0.0 0.0
0.0 0.0 0.0
0.0 0.0 0.0
0.0 0.0 0.0
0.0 0.0 0.0
0.0 0.0 0.0
0.0 0.0 0.0
0.0 0.0 0.0
0.0 0.0 0.0
0.0 0.0 0.0
0.0 0.0 0.0
0.0 0.0 0.0
0.0 0.0 0.0
0.0 0.0 0.0
0.0 0.0 0.0
0.0 0.0 0.0
0.0 0.0 0.0
0.0 0.0 0.0
0.0 0.0 0.0
0.0 0.0 0.0
0.0 0.0 0.0
0.0 0.0 0.0
0.0 0.0 0.0
0.0 0.0 0.0
0.0 0.0 0.0
0.0 0.0 0.0
0.0 0.0 0.0
0.0 0.0 0.0
0.0 0.0 0.0
0.0 0.0 0.0
0.0 0.0 0.0
0.0 0.0 0.0
0.0 0.0 0.0
0.0 0.0 0.0
0.0 0.0 0.0
0.0 0.0 0.0
0.0 0.0 0.0
0.0 0.0 0.0
0.0 0.0 0.0
0.0 0.0 0.0
0.0 0.0 0.0
0.0 0.0 0.0
0.0 0.0 0.0
0.0 0.0 0.0
0.0 0.0 0.0
0.0 0.0 0.0
0.0 0.0 0.0
0.0 0.0 0.0
0.0 0.0 0.0
0.0 0.0 0.0
0.0 0.0 0.0
0.0 0.0 0.0
0.0 0.0 0.0
0.0 0.0 0.0
0.0 0.0 0.0
0.0 0.0 0.0
0.0 0.0 0.0
0.0 0.0 0.0
0.0 0.0 0.0
0.0 0.0 0.0
0.0 0.0 0.0
0.0 0.0 0.0
0.0 0.0 0.0
0.0 0.0 0.0
0.0 0.0 0.0
0.0 0.0 0.0
0.0 0.0 0.0
0.0 0.0 0.0
0.0 0.0 0.0
0.0 0.0 0.0
0.0 0.0 0.0
0.0 0.0 0.0
0.0 0.0 0.0
0.0 0.0 0.0
0.0 0.0 0.0
0.0 0.0 0.0
0.266795943759 0.0447807638456 0.0
0.49815935009 0.0352297729391 0.0
0.684272042961 0.0261653968612 0.0
0.856098088052 0.0160306638876 0.0
0.999874851773 0.0130000726042 0.0
1.07308549982 0.014694966076 0.0
1.12551580219 0.00675086645977 0.0
1.17152190015 0.00432805108443 0.0
1.19298119971 0.00302156669569 0.0
1.20501383962 0.00141318332341 0.0
1.21096406468 0.000688509419387 0.0
1.21383105786 0.000262606932725 0.0
1.21508865581 7.9579287423e-06 0.0
1.21510901651 -4.05526914968e-05 0.0
1.21571291005 1.69992562901e-05 0.0
1.21524607241 1.6854400555e-05 0.0
1.21532585965 -1.56190091758e-05 0.0
1.21531216766 -9.20464250918e-06 0.0
1.215355242 -1.16135972376e-05 0.0
1.21525776003 -2.12129763942e-05 0.0
1.21521961983 -6.11152618311e-06 0.0
1.21484048028 -2.2328459361e-05 0.0
1.21554622075 -4.99132500322e-05 0.0
1.2143972315 -2.45636646842e-05 0.0
1.21528164123 -1.27787636603e-05 0.0
1.21460427876 -8.97175056114e-06 0.0
1.21423552348 -9.43554890245e-06 0.0
1.21514616797 -1.51529686157e-05 0.0
1.2145869493 -1.13271886033e-05 0.0
1.21445796345 4.807235348e-06 0.0
1.21441170806 -2.61224706376e-05 0.0
1.21450556206 1.228046538e-05 0.0
1.2143443537 2.33472569137e-05 0.0
1.21504421406 1.69827348308e-05 0.0
1.21461059934 1.07212149108e-06 0.0
1.21466489069 1.82638129846e-05 0.0
1.21488673748 1.84319828855e-06 0.0
1.21501650814 2.74713295935e-05 0.0
1.21470267855 -8.07590665183e-07 0.0
1.21538983304 3.78866599655e-05 0.0
1.21491804357 1.54453351138e-05 0.0
1.21492648066 2.82777994395e-06 0.0
1.21500088683 -5.39622980389e-06 0.0
1.21532498683 1.67742210716e-05 0.0
1.21511193077 4.68490192766e-06 0.0
1.21514258829 -2.38761395727e-06 0.0
1.21523814758 -9.02758972681e-06 0.0
1.21574077621 3.11127767743e-05 0.0
1.2150267365 7.16230341305e-06 0.0
1.21580337116 -1.79791734794e-05 0.0
1.21394336855 3.87421958154e-06 0.0
1.21573220957 -2.29055870752e-05 0.0
1.21518095537 -9.51115781304e-06 0.0
1.21509141913 4.79104495155e-06 0.0
1.21505366893 -2.25335155984e-05 0.0
1.21507355667 -2.01357790627e-05 0.0
1.21546555225 -5.02098781751e-06 0.0
1.21456885389 -2.32110826985e-05 0.0
1.21533697447 -8.72160656804e-06 0.0
1.21343999358 2.47830868695e-06 0.0
1.21526543293 -1.72169205048e-05 0.0
1.21484064049 -3.05917263351e-06 0.0
1.21469521773 9.94866192064e-06 0.0
1.21465996651 -1.47665427304e-05 0.0
1.21470315343 -1.64017011104e-05 0.0
1.21511467328 -1.50229600197e-05 0.0
1.21418401381 -9.89674371918e-06 0.0
1.21495352253 -3.69328533395e-05 0.0
1.2131287981 4.6273666128e-06 0.0
1.21481036232 -2.60758440954e-05 0.0
1.21431739317 -1.66147229137e-05 0.0
1.21408830076 -8.19855453701e-06 0.0
1.2139875811 -2.72822475828e-05 0.0
1.21399675688 -2.39270815858e-05 0.0
1.21432142633 -5.28910943609e-05 0.0
1.2133015701 -2.93964312194e-05 0.0
1.2139345781 -6.0696917146e-05 0.0
1.21208755847 8.47978787766e-06 0.0
1.21369233069 -5.49566190533e-05 0.0
1.21310775578 -4.13494305323e-05 0.0
1.212830463 -1.70638260365e-05 0.0
1.21267056065 -2.09893467007e-05 0.0
1.21278896549 -3.46803916689e-05 0.0
1.21252048592 -1.94563342789e-05 0.0
1.21291035564 -1.93116017702e-05 0.0
1.212475466 -1.56331466663e-05 0.0
1.21262717323 6.87462637429e-06 0.0
1.21235598138 -1.19959899872e-05 0.0
1.21188599836 -8.63229797828e-06 0.0
1.2129227471 2.51044521058e-05 0.0
1.21218640165 1.43497479435e-05 0.0
1.21216725826 -1.85484319635e-05 0.0
1.21219706946 2.11022139804e-05 0.0
1.21245596484 1.80475326101e-05 0.0
1.21320549431 4.47532765699e-05 0.0
1.21253011595 5.02528996693e-06 0.0
1.21244978982 1.00905340525e-05 0.0
1.21266349588 6.74160807851e-06 0.0
1.21290392932 5.02599602172e-05 0.0
1.21358952054 1.04714402563e-05 0.0
1.21268857942 1.21566492322e-05 0.0
1.21329490984 5.21802765066e-05 0.0
1.21368979218 3.02169151386e-05 0.0
1.21364820556 4.26984808388e-05 0.0
1.2142411745 5.2645926586e-05 0.0
1.21381504176 1.30908584347e-05 0.0
1.21395232757 3.60485077694e-05 0.0
1.21407439569 1.7605941226e-05 0.0
1.21410704572 5.11530577791e-06 0.0
1.21474983659 2.38168580045e-05 0.0
1.21490368485 4.55659250076e-05 0.0
1.213128242 -1.07730346175e-05 0.0
1.21501302208 2.12054265634e-05 0.0
1.21433820443 1.8114308694e-05 0.0
1.215259863 2.66017004208e-05 0.0
1.21485037809 1.39329680627e-05 0.0
1.21480644716 1.31943142439e-05 0.0
1.21488730909 1.3655698129e-05 0.0
1.21512732232 3.61736510365e-05 0.0
1.21572688426 5.32379707256e-05 0.0
1.21396569294 -7.16213081567e-06 0.0
1.21590676544 3.90866577687e-05 0.0
1.21515240651 2.26342014217e-05 0.0
1.21619473626 2.86685141583e-05 0.0
1.21580861498 3.42058643694e-05 0.0
1.21577322899 1.8798726517e-05 0.0
1.2158383011 -8.64377129873e-07 0.0
1.2160645231 8.71445812591e-06 0.0
1.21651965587 6.61161225244e-06 0.0
1.21469895073 3.77560476347e-07 0.0
1.21648134799 -1.94047995319e-05 0.0
1.21550461856 -2.01245656205e-05 0.0
1.21617357292 -8.28809750592e-05 0.0
1.21536890719 -9.55410461188e-05 0.0
1.21490788172 -0.000103565390956 0.0
1.21416793787 -0.000173721709875 0.0
1.21345814646 -0.000292073384454 0.0
1.21242985165 -0.000492148834483 0.0
1.20997314268 9.4829234051e-05 0.0
1.20963610457 -0.000668690838071 0.0
1.20706886029 -0.000308594139961 0.0
1.20471799299 -0.000968682685529 0.0
1.20128709196 -0.000775118963108 0.0
1.19863050256 -0.000701524643627 0.0
1.19456331628 -0.000726283116251 0.0
1.19131612474 -0.000980097369544 0.0
1.18628767086 -0.0016617534572 0.0
1.18262998384 0.000248624823586 0.0
1.17917267574 -0.0014702756807 0.0
1.17444828715 -0.000647898359568 0.0
1.16966045936 -0.00163619382532 0.0
1.16421398937 -0.00111540799575 0.0
1.16031003902 -0.000877244510365 0.0
1.15505415717 -0.00088152311108 0.0
1.15046391784 -0.00146724887934 0.0
1.14599978387 -0.000837904264188 0.0
1.14038804083 -0.000848983182861 0.0
1.13636530479 -0.00104852735936 0.0
1.13038598912 -0.00161435388233 0.0
1.12452239029 -0.000877021989304 0.0
1.11911677148 -0.00160044032987 0.0
1.11440060457 -0.00148393765506 0.0
1.10765378818 -0.00121746529405 0.0
1.10267478917 -0.00128408805769 0.0
1.09561670912 -0.0019625659481 0.0
1.08784594262 -0.00125484456414 0.0
1.08143208192 -0.00151793668101 0.0
1.07593244689 -0.00127503818581 0.0
1.06828386964 -0.00113475841508 0.0
1.06293127207 -0.00162383301225 0.0
1.05530699975 -0.00241475580856 0.0
1.0474015595 -0.000897575894349 0.0
1.04175172396 -0.000889103418535 0.0
1.03609613203 -0.00258345956144 0.0
1.02793063729 -0.000705623970963 0.0
1.02230612968 -0.00191334232209 0.0
1.01620182968 -0.000858428586869 0.0
1.01157419605 -0.00102338615045 0.0
1.00798387686 -0.000825159581537 0.0
1.00436135685 -0.00058277034628 0.0
1.00230641285 -0.000509656124171 0.0
1.00071434217 -0.000117560098009 0.0
1.0 0.0 0.0
1.0 0.0 0.0
1.0 0.0 0.0
1.0 0.0 0.0
1.0 0.0 0.0
1.0 0.0 0.0
1.0 0.0 0.0
1.0 0.0 0.0
1.0 0.0 0.0
1.0 0.0 0.0
1.0 0.0 0.0
1.0 0.0 0.0
1.0 0.0 0.0
1.0 0.0 0.0
1.0 0.0 0.0
1.0 0.0 0.0
1.18162349605 -0.00109841800612 0.0
1.07579526874 -0.0684859790595 0.0
1.18209698777 0.000431941739111 0.0
1.16440778102 -0.0605536655337 0.0
1.1826355917 0.000494695545127 0.0
1.20352766767 -0.0384136651214 0.0
1.20352992681 -0.0207880524439 0.0
1.18312306273 -0.000335499454081 0.0
1.19140922875 -0.00376127925909 0.0
1.18545345449 -0.000741515069308 0.0
1.18597058902 0.0010189160683 0.0
1.18553882672 -0.000755752767616 0.0
1.18515818958 0.00110104761127 0.0
1.18531972225 -0.00164670907729 0.0
1.18533432524 0.000548721988329 0.0
1.18100019202 2.89313335527e-06 0.0
1.18112372117 0.00140442216566 0.0
1.17100845347 0.000544484810275 0.0
1.03526081762 -0.00143126957529 0.0
1.17651643163 -0.0911577328182 0.0
1.21267306794 -7.1899234755e-05 0.0
1.0811036072 -0.0400179301206 0.0
1.03094445346 -0.000545369736504 0.0
1.13074875388 -0.046198327871 0.0
1.21242850756 0.000571478334143 0.0
1.03008675808 0.00165983201742 0.0
1.07425486977 -0.0207698217177 0.0
1.03862292442 -0.00306787571751 0.0
1.03094473638 -0.00127380114116 0.0
1.21105851205 -0.000700107425924 0.0
1.21281512312 0.000446391481778 0.0
1.02855587722 0.0021984875749 0.0
1.03016749678 -0.000591635692369 0.0
1.0292365495 0.0021145191669 0.0
1.03112431412 -0.00108257890909 0.0
1.03049770791 0.0014346932403 0.0
1.02682411999 -0.00209095293814 0.0
1.02585734953 0.00223844055206 0.0
1.21249306837 -0.000655023300476 0.0
1.21374784518 0.000579292629571 0.0
1.21289100705 -0.000156367770893 0.0
1.21507361372 -0.0012099036039 0.0
1.21340051088 -0.0125741986409 0.0
1.21324934808 -0.000251001777448 0.0
1.21343580033 -0.00010141769154 0.0
1.19534917398 -0.0231436454694 0.0
1.14916327973 -0.0322944798381 0.0
1.21318706381 0.000323093691257 0.0
1.21128170206 0.000144340029391 0.0
1.21158040929 0.000506067919205 0.0
0.989919245187 -0.00239691280295 0.0
0.989364193353 0.00282355571663 0.0
1.10003168094 -0.114771128439 0.0
0.980360724177 0.00137996484224 0.0
1.21448863428 -0.000487006107315 0.0
1.01601616832 -0.0261850044551 0.0
0.902407974441 0.000122531869863 0.0
1.06883640656 -0.0562689882501 0.0
0.879599293659 -0.000735288253207 0.0
0.943631910625 -0.021838774328 0.0
1.21445108769 0.000347842109937 0.0
1.21513644075 0.000643421180236 0.0
1.21351921828 -0.000719162808648 0.0
1.21377189175 0.000701821030155 0.0
0.915538740304 -0.00689366142164 0.0
0.902042373219 -0.00123839315142 0.0
0.897935668472 0.00148382241602 0.0
0.900002999139 -0.00245447807633 0.0
0.898198999792 0.00173410233766 0.0
0.900201058757 -0.00228955489913 0.0
0.900000976628 0.00132540868238 0.0
0.90159433477 -0.00317280634057 0.0
0.90082213669 0.00103331002816 0.0
1.21250986379 -0.00018909753352 0.0
1.21617803555 0.000257548846156 0.0
1.21455378077 -0.000421235094432 0.0
1.21516397545 -0.00462658544165 0.0
1.21488781234 -0.000295516432064 0.0
0.895855109172 0.00141312080713 0.0
0.893413779196 -0.000229118369975 0.0
1.19976470974 -0.0153460145293 0.0
1.21528103194 -0.000270156553358 0.0
1.21457070422 7.97543389899e-05 0.0
1.10368812663 -0.0296039902103 0.0
1.21551614396 0.000228838036548 0.0
1.16639091696 -0.0209307973445 0.0
0.901825034005 0.00172549081455 0.0
1.17403510666 -0.114384271587 0.0
1.21494990331 -0.000394055723232 0.0
1.04343809866 -0.0289178116181 0.0
0.843564684529 0.0032730915406 0.0
1.21290247232 0.000333195711273 0.0
1.01961675347 -0.0440876108839 0.0
1.1776312391 -0.000373292702411 0.0
1.17867943551 -0.000648527119975 0.0
1.17827684662 0.00143618989097 0.0
1.18094575012 0.000886803558055 0.0
1.1846907176 0.000382324478273 0.0
1.18047049842 -0.000647044207121 0.0
1.18415487591 0.000876719481092 0.0
1.18449016196 -0.000711982702309 0.0
1.18472569984 0.00075288955195 0.0
1.19416415857 -0.046381465398 0.0
1.18316480256 -0.000187579917635 0.0
1.20688183937 -0.0309883613847 0.0
1.18550580814 0.000212734024168 0.0
1.18427947044 0.000112180479127 0.0
1.19477936092 -0.00904438934635 0.0
1.18439179231 -0.000128608204552 0.0
1.13690123809 -0.0656507852297 0.0
1.18196580548 -0.000134232416418 0.0
1.21557796981 0.000182038392434 0.0
1.11753966029 -0.0186864426616 0.0
1.2153347455 0.000206205211961 0.0
1.21447589095 -0.000433125474645 0.0
1.21634640372 0.000363740930652 0.0
1.2153487939 -0.000143513938613 0.0
1.21693062871 -0.00040582001675 0.0
1.21572214593 -0.000163319529385 0.0
1.21029028075 -0.0066008318469 0.0
1.21608891547 1.26213249054e-05 0.0
1.18294817686 -0.0129263370921 0.0
1.14116099 -0.0166381330461 0.0
1.21567056294 0.000214335289284 0.0
0.715151347829 0.00191068547373 0.0
0.930601978905 -0.0506940620358 0.0
0.704272165887 1.48875714009e-05 0.0
0.735173047178 -0.00795775884738 0.0
0.697186590917 0.00198919736288 0.0
0.768215027081 -0.0184110231465 0.0
0.817768621188 -0.0267040831322 0.0
0.702595298215 0.00160654542476 0.0
0.700735153798 0.000417611059196 0.0
0.705296656711 5.59539172459e-05 0.0
0.70662321571 -0.00142297665395 0.0
0.706242867258 -0.000354761913774 0.0
0.700238239969 0.000444459509132 0.0
0.704450019601 0.00100863607637 0.0
0.698582718134 0.00051857418343 0.0
0.702438303371 0.00073229566458 0.0
0.702484284091 0.000124330092606 0.0
0.705318635318 0.000708646901036 0.0
0.71431866542 -0.00424727038598 0.0
0.701141721622 -0.000323835517841 0.0
0.701231263206 0.000205722930167 0.0
0.702835625861 0.000715980409424 0.0
0.703636207236 -0.000234036069007 0.0
0.702849186415 -0.000119461839261 0.0
0.7065354485 -0.00264395946522 0.0
0.705065195947 0.0023120244155 0.0
1.21293031315 8.53934580926e-05 0.0
1.16984274769 -0.000776267953939 0.0
1.11562593928 -0.0749314003847 0.0
1.21368446294 0.000320069627363 0.0
1.17168531688 -0.00109964069971 0.0
1.18850570014 -0.0131096139734 0.0
1.17210941222 9.58540322662e-08 0.0
1.17490349452 -0.000837748153405 0.0
1.16925176935 -0.000362553701624 0.0
1.16903161481 0.000658109655143 0.0
1.19890503529 -0.024885432397 0.0
1.17048460054 -0.000395534971781 0.0
1.16949851257 -0.00110854987584 0.0
1.1689449788 0.000340010684617 0.0
1.16976036226 0.000251667432342 0.0
1.18808823893 -0.055753392316 0.0
1.16939083788 0.000914761152565 0.0
0.67285904937 0.00231921588132 0.0
0.670746907223 -0.000750076847736 0.0
1.21531467128 -6.56848439587e-05 0.0
1.07836260303 -0.0198208364382 0.0
1.12638094202 -0.15384119731 0.0
0.706001267023 0.00154438388728 0.0
0.692104977752 0.008336123285 0.0
0.983838506964 -0.0723026187476 0.0
1.2162172848 0.000115981915508 0.0
1.16769241355 -0.0131524585061 0.0
1.21582215751 -9.05715248604e-05 0.0
1.20153629455 -0.00990813321674 0.0
1.21543637086 -2.51744719903e-05 0.0
1.21604924155 -0.00187316498855 0.0
1.21611809095 -0.000228777103623 0.0
1.00421161962 -0.00889818715047 0.0
1.21489712641 -0.000235684588865 0.0
1.21667077401 0.000151531396684 0.0
1.21377998141 -0.000293907362996 0.0
1.2156353885 0.000236532121415 0.0
1.21310703012 -0.000252140110928 0.0
1.21489632883 0.000177549020939 0.0
1.21453618798 0.000360457801565 0.0
1.21096434811 0.000369129324336 0.0
1.13573610041 -0.038901731774 0.0
0.678188095513 0.00198436125395 0.0
0.67773671108 -0.00230509458622 0.0
1.2110942218 7.92608750365e-05 0.0
1.20726129229 -0.0219016714152 0.0
1.2155893876 -0.000164400633171 0.0
1.05764831896 -0.0199321625445 0.0
1.21163679992 0.000393385940273 0.0
1.17173082472 -0.0321169233759 0.0
1.21047526497 -0.000135247211072 0.0
1.21425549947 -0.00821155500917 0.0
1.21025454975 -0.000112722480437 0.0
1.21182424267 -4.4535561132e-05 0.0
1.20967486613 -0.000700856084081 0.0
1.21052524576 0.000602395653858 0.0
1.21002800742 0.000103975065368 0.0
0.66713008934 0.00263451864268 0.0
0.643101907283 0.00331071037821 0.0
1.21360104543 0.000226161635587 0.0
1.21303192852 0.000104501605864 0.0
0.65216402908 0.00400657076218 0.0
1.11777619851 -0.122999332587 0.0
1.21581210939 -0.00030219254391 0.0
1.0223454447 -0.016086607566 0.0
1.2080004465 -2.48411651916e-05 0.0
1.20844216997 0.00100405373705 0.0
1.20676769653 0.000489306692353 0.0
1.20685870595 0.000274419023364 0.0
1.20896050458 0.000549372364831 0.0
1.20917412768 0.000781440658236 0.0
1.20811189103 -0.0012838214212 0.0
1.21015963569 0.000705547016464 0.0
1.20909693988 -0.000715349809325 0.0
1.08565713046 0.000231429673346 0.0
1.18251357344 -0.0771715768258 0.0
1.21249034876 -0.00295201513967 0.0
1.20919841648 -0.000464515059526 0.0
1.21285980899 -0.0176556747313 0.0
1.2100420041 -0.000568658726728 0.0
1.08482792967 -0.000678027211707 0.0
1.08379736288 3.92060961412e-05 0.0
1.08568175531 -0.000232430286842 0.0
1.08314672246 0.00304888099188 0.0
1.15664873905 -0.0441594582656 0.0
1.08138543022 0.00191120010985 0.0
1.13870478503 -0.0309632360196 0.0
1.08351456009 0.000174643236005 0.0
1.08485000407 0.000664965866008 0.0
1.0895297243 -0.00360044116278 0.0
1.08482313298 0.000459308631682 0.0
1.09158548571 0.000830684534009 0.0
1.09073910816 0.000497230199521 0.0
1.06807373303 -0.0487716135728 0.0
1.20916381054 -0.000663243912656 0.0
1.08607997451 0.00148040273812 0.0
1.09144050008 -0.000149636324275 0.0
1.14836097155 -0.000228770053885 0.0
1.06196365882 -0.0746775932173 0.0
1.02098117515 -0.0536591141084 0.0
1.08706109443 -0.000688588751807 0.0
1.00449553333 -0.0169344922838 0.0
1.21190064826 -0.000311473695397 0.0
1.21157906802 -0.000500552969376 0.0
1.03718258428 -0.0401847869302 0.0
1.20727166354 0.000882775237167 0.0
1.20624669391 -0.000226974855695 0.0
1.09155228892 0.00299931154584 0.0
1.09258647124 -0.00211213638069 0.0
1.20867044959 0.0003041111803 0.0
1.19259321331 -0.0296780996186 0.0
1.11931632537 -0.0462634111326 0.0
1.20789847324 6.56244134273e-05 0.0
1.04928857584 -0.00278819747634 0.0
1.0654879641 -0.00688417416018 0.0
1.04798887246 -0.0028085329594 0.0
1.0479326755 0.00285389659734 0.0
1.04864269091 -0.00241927528999 0.0
1.04743448006 0.00272996582221 0.0
1.04998418109 -0.00272947661826 0.0
1.04845185511 0.00217547232325 0.0
1.04935652246 0.00138755708827 0.0
1.08241715923 -0.018418726976 0.0
1.05031908615 0.00188970743273 0.0
1.14990986896 -0.0566357425888 0.0
1.03364439976 -0.000776685212145 0.0
1.18166800119 0.000374628007042 0.0
1.18179316996 0.000730153082431 0.0
1.12670019717 -0.0902906097395 0.0
1.12187613808 -0.00064263071454 0.0
1.12386252835 -0.0129579274899 0.0
1.21562943745 0.000163539162176 0.0
1.03516957683 0.00143079112335 0.0
1.12992003043 -0.111310406031 0.0
1.09910613535 -0.0137669419503 0.0
1.21532137692 0.000135143635998 0.0
1.21504730227 0.000155749672794 0.0
1.21597652239 0.000232401211376 0.0
1.21390607476 -0.000336032465962 0.0
1.2149548914 -0.000162136283912 0.0
1.21675984786 -1.8353828665e-05 0.0
1.21543318575 -0.000118988261618 0.0
1.21184329834 -0.00309852168231 0.0
1.18511381288 -0.00785125115032 0.0
1.21609679398 -0.000112322321795 0.0
1.14766497107 -0.010993211109 0.0
1.21593982426 0.000110275061112 0.0
0.55212367618 -0.00109034710226 0.0
0.695379228718 -0.0262624750453 0.0
0.541087860102 0.0037387516014 0.0
0.539734383878 -0.00176847350534 0.0
0.490251288341 -0.0044850008971 0.0
0.515821550678 -0.00445158416771 0.0
0.548645498389 -0.00417854056918 0.0
0.548474942095 -0.000442043577494 0.0
0.550058596318 -0.000150657394134 0.0
0.555134422336 -0.00257583765997 0.0
0.553501248389 -0.00115071415893 0.0
0.555717202801 -0.00191153532774 0.0