# vtk DataFile Version 2.0
2D Simulation Python
ASCII
DATASET UNSTRUCTURED_GRID
FIELD FieldData 1
NODES 1 2 int
11134 7299

POINTS 11134 double
0.0 1.0 0.0
1.725 1.0 0.0
8.275 1.0 0.0
10.0 1.0 0.0
10.0 0.0 0.0
0.0 0.0 0.0
0.05948275862057954 1.0 0.0
0.1189655172411507 1.0 0.0
0.1784482758617532 1.0 0.0
0.2379310344823185 1.0 0.0
0.2974137931028384 1.0 0.0
0.3568965517233564 1.0 0.0
0.4163793103438745 1.0 0.0
0.475862068964385 1.0 0.0
0.535344827584889 1.0 0.0
0.5948275862053855 1.0 0.0
0.654310344825882 1.0 0.0
0.7137931034463786 1.0 0.0
0.7732758620668752 1.0 0.0
0.8327586206874149 1.0 0.0
0.8922413793081027 1.0 0.0
0.9517241379289384 1.0 0.0
1.011206896549752 1.0 0.0
1.070689655170612 1.0 0.0
1.130172413791474 1.0 0.0
1.189655172412335 1.0 0.0
1.249137931033183 1.0 0.0
1.308620689654105 1.0 0.0
1.368103448274985 1.0 0.0
1.427586206895818 1.0 0.0
1.487068965516628 1.0 0.0
1.546551724137449 1.0 0.0
1.606034482758285 1.0 0.0
1.665517241379139 1.0 0.0
1.784545454545345 1.0 0.0
1.844090909090676 1.0 0.0
1.903636363635991 1.0 0.0
1.963181818181336 1.0 0.0
2.022727272726716 1.0 0.0
2.082272727272112 1.0 0.0
2.141818181817408 1.0 0.0
2.201363636362702 1.0 0.0
2.260909090908037 1.0 0.0
2.320454545453433 1.0 0.0
2.379999999998759 1.0 0.0
2.439545454544053 1.0 0.0
2.499090909089358 1.0 0.0
2.558636363634754 1.0 0.0
2.618181818180109 1.0 0.0
2.677727272725404 1.0 0.0
2.737272727270631 1.0 0.0
2.796818181815906 1.0 0.0
2.856363636361191 1.0 0.0
2.915909090906408 1.0 0.0
2.975454545451703 1.0 0.0
3.034999999997049 1.0 0.0
3.094545454542377 1.0 0.0
3.154090909087591 1.0 0.0
3.21363636363288 1.0 0.0
3.273181818178196 1.0 0.0
3.332727272723555 1.0 0.0
3.392272727268849 1.0 0.0
3.451818181814208 1.0 0.0
3.511363636359524 1.0 0.0
3.570909090904812 1.0 0.0
3.630454545450026 1.0 0.0
3.689999999995355 1.0 0.0
3.749545454540702 1.0 0.0
3.809090909085996 1.0 0.0
3.868636363631291 1.0 0.0
3.928181818176585 1.0 0.0
3.987727272721861 1.0 0.0
4.047272727267021 1.0 0.0
4.106818181812208 1.0 0.0
4.166363636357625 1.0 0.0
4.225909090903122 1.0 0.0
4.285454545448432 1.0 0.0
4.34499999999356 1.0 0.0
4.404545454538917 1.0 0.0
4.464090909084414 1.0 0.0
4.523636363629791 1.0 0.0
4.583181818174936 1.0 0.0
4.642727272720208 1.0 0.0
4.702272727265705 1.0 0.0
4.761818181811142 1.0 0.0
4.821363636356348 1.0 0.0
4.880909090901557 1.0 0.0
4.940454545446997 1.0 0.0
4.999999999992493 1.0 0.0
5.059545454538018 1.0 0.0
5.119090909083717 1.0 0.0
5.17863636362933 1.0 0.0
5.238181818174827 1.0 0.0
5.297727272720321 1.0 0.0
5.357272727265989 1.0 0.0
5.416818181811662 1.0 0.0
5.476363636357158 1.0 0.0
5.535909090902654 1.0 0.0
5.595454545448262 1.0 0.0
5.65499999999396 1.0 0.0
5.714545454539491 1.0 0.0
5.774090909085032 1.0 0.0
5.83363636363093 1.0 0.0
5.893181818176673 1.0 0.0
5.952727272722171 1.0 0.0
6.012272727267668 1.0 0.0
6.071818181813491 1.0 0.0
6.131363636359353 1.0 0.0
6.190909090904849 1.0 0.0
6.250454545450346 1.0 0.0
6.309999999996052 1.0 0.0
6.369545454541951 1.0 0.0
6.429090909087529 1.0 0.0
6.488636363633026 1.0 0.0
6.548181818178611 1.0 0.0
6.60772727272451 1.0 0.0
6.667272727270209 1.0 0.0
6.726818181815705 1.0 0.0
6.786363636361202 1.0 0.0
6.845909090907071 1.0 0.0
6.905454545452889 1.0 0.0
6.964999999998385 1.0 0.0
7.024545454543881 1.0 0.0
7.084090909089378 1.0 0.0
7.143636363634876 1.0 0.0
7.20318181818037 1.0 0.0
7.262727272725868 1.0 0.0
7.322272727271365 1.0 0.0
7.381818181816859 1.0 0.0
7.441363636362357 1.0 0.0
7.500909090907854 1.0 0.0
7.560454545453348 1.0 0.0
7.619999999998846 1.0 0.0
7.679545454544343 1.0 0.0
7.739090909089839 1.0 0.0
7.798636363635335 1.0 0.0
7.858181818180832 1.0 0.0
7.917727272726328 1.0 0.0
7.977272727271824 1.0 0.0
8.036818181817441 1.0 0.0
8.09636363636334 1.0 0.0
8.155909090909008 1.0 0.0
8.215454545454504 1.0 0.0
8.334482758620055 1.0 0.0
8.393965517240051 1.0 0.0
8.453448275859904 1.0 0.0
8.51293103448045 1.0 0.0
8.572413793100301 1.0 0.0
8.631896551720153 1.0 0.0
8.6913793103407 1.0 0.0
8.750862068961245 1.0 0.0
8.810344827581792 1.0 0.0
8.869827586202339 1.0 0.0
8.929310344822884 1.0 0.0
8.988793103443431 1.0 0.0
9.048275862063978 1.0 0.0
9.107758620684523 1.0 0.0
9.16724137930507 1.0 0.0
9.226724137925617 1.0 0.0
9.286206896546162 1.0 0.0
9.345689655167401 1.0 0.0
9.405172413788595 1.0 0.0
9.46465517240963 1.0 0.0
9.524137931030667 1.0 0.0
9.583620689651704 1.0 0.0
9.643103448272907 1.0 0.0
9.702586206894148 1.0 0.0
9.762068965515388 1.0 0.0
9.821551724136627 1.0 0.0
9.881034482757867 1.0 0.0
9.940517241378963 1.0 0.0
10.0 0.9411764705879904 0.0
10.0 0.882352941175982 0.0
10.0 0.8235294117645425 0.0
10.0 0.764705882353186 0.0
10.0 0.7058823529418295 0.0
10.0 0.6470588235304731 0.0
10.0 0.5882352941191167 0.0
10.0 0.5294117647077601 0.0
10.0 0.4705882352960771 0.0
10.0 0.4117647058840672 0.0
10.0 0.3529411764720576 0.0
10.0 0.2941176470600479 0.0
10.0 0.2352941176480381 0.0
10.0 0.1764705882360285 0.0
10.0 0.1176470588240187 0.0
10.0 0.05882352941200908 0.0
9.940119760479043 0.0 0.0
9.880239520958083 0.0 0.0
9.820359281437126 0.0 0.0
9.760479041916167 0.0 0.0
9.70059880239521 0.0 0.0
9.640718562874252 0.0 0.0
9.580838323353293 0.0 0.0
9.520958083832335 0.0 0.0
9.461077844311376 0.0 0.0
9.401197604790418 0.0 0.0
9.34131736526946 0.0 0.0
9.281437125748502 0.0 0.0
9.221556886227543 0.0 0.0
9.161676646706585 0.0 0.0
9.101796407185628 0.0 0.0
9.041916167664668 0.0 0.0
8.982035928143711 0.0 0.0
8.922155688622752 0.0 0.0
8.862275449101794 0.0 0.0
8.802395209580837 0.0 0.0
8.742514970059878 0.0 0.0
8.68263473053892 0.0 0.0
8.622754491017961 0.0 0.0
8.562874251497004 0.0 0.0
8.502994011976044 0.0 0.0
8.443113772455087 0.0 0.0
8.38323353293413 0.0 0.0
8.32335329341317 0.0 0.0
8.263473053892213 0.0 0.0
8.203592814371254 0.0 0.0
8.143712574850296 0.0 0.0
8.083832335329337 0.0 0.0
8.02395209580838 0.0 0.0
7.964071856287422 0.0 0.0
7.904191616766464 0.0 0.0
7.844311377245505 0.0 0.0
7.784431137724548 0.0 0.0
7.72455089820359 0.0 0.0
7.664670658682631 0.0 0.0
7.604790419161674 0.0 0.0
7.544910179640715 0.0 0.0
7.485029940119757 0.0 0.0
7.425149700598799 0.0 0.0
7.36526946107784 0.0 0.0
7.305389221556883 0.0 0.0
7.245508982035925 0.0 0.0
7.185628742514966 0.0 0.0
7.125748502994009 0.0 0.0
7.065868263473051 0.0 0.0
7.005988023952092 0.0 0.0
6.946107784431135 0.0 0.0
6.886227544910177 0.0 0.0
6.826347305389219 0.0 0.0
6.766467065868261 0.0 0.0
6.706586826347303 0.0 0.0
6.646706586826344 0.0 0.0
6.586826347305387 0.0 0.0
6.526946107784428 0.0 0.0
6.46706586826347 0.0 0.0
6.407185628742512 0.0 0.0
6.347305389221554 0.0 0.0
6.287425149700596 0.0 0.0
6.227544910179638 0.0 0.0
6.16766467065868 0.0 0.0
6.107784431137722 0.0 0.0
6.047904191616764 0.0 0.0
5.988023952095805 0.0 0.0
5.928143712574848 0.0 0.0
5.868263473053889 0.0 0.0
5.808383233532932 0.0 0.0
5.748502994011973 0.0 0.0
5.688622754491016 0.0 0.0
5.628742514970057 0.0 0.0
5.568862275449099 0.0 0.0
5.508982035928141 0.0 0.0
5.449101796407183 0.0 0.0
5.389221556886225 0.0 0.0
5.329341317365267 0.0 0.0
5.269461077844309 0.0 0.0
5.209580838323351 0.0 0.0
5.149700598802393 0.0 0.0
5.089820359281434 0.0 0.0
5.029940119760477 0.0 0.0
4.970059880239518 0.0 0.0
4.91017964071856 0.0 0.0
4.850299401197602 0.0 0.0
4.790419161676644 0.0 0.0
4.730538922155686 0.0 0.0
4.670658682634729 0.0 0.0
4.610778443113769 0.0 0.0
4.550898203592812 0.0 0.0
4.491017964071854 0.0 0.0
4.431137724550896 0.0 0.0
4.371257485029938 0.0 0.0
4.31137724550898 0.0 0.0
4.251497005988022 0.0 0.0
4.191616766467064 0.0 0.0
4.131736526946106 0.0 0.0
4.071856287425147 0.0 0.0
4.01197604790419 0.0 0.0
3.952095808383231 0.0 0.0
3.892215568862274 0.0 0.0
3.832335329341316 0.0 0.0
3.772455089820358 0.0 0.0
3.712574850299399 0.0 0.0
3.652694610778441 0.0 0.0
3.592814371257483 0.0 0.0
3.532934131736526 0.0 0.0
3.473053892215567 0.0 0.0
3.41317365269461 0.0 0.0
3.353293413173652 0.0 0.0
3.293413173652693 0.0 0.0
3.233532934131736 0.0 0.0
3.173652694610777 0.0 0.0
3.113772455089819 0.0 0.0
3.053892215568861 0.0 0.0
2.994011976047903 0.0 0.0
2.934131736526945 0.0 0.0
2.874251497005988 0.0 0.0
2.814371257485028 0.0 0.0
2.754491017964071 0.0 0.0
2.694610778443113 0.0 0.0
2.634730538922155 0.0 0.0
2.574850299401197 0.0 0.0
2.514970059880238 0.0 0.0
2.455089820359281 0.0 0.0
2.395209580838323 0.0 0.0
2.335329341317365 0.0 0.0
2.275449101796406 0.0 0.0
2.215568862275448 0.0 0.0
2.15568862275449 0.0 0.0
2.095808383233532 0.0 0.0
2.035928143712574 0.0 0.0
1.976047904191615 0.0 0.0
1.916167664670658 0.0 0.0
1.8562874251497 0.0 0.0
1.796407185628741 0.0 0.0
1.736526946107784 0.0 0.0
1.676646706586826 0.0 0.0
1.616766467065867 0.0 0.0
1.55688622754491 0.0 0.0
1.49700598802395 0.0 0.0
1.437125748502995 0.0 0.0
1.377245508982035 0.0 0.0
1.317365269461078 0.0 0.0
1.257485029940119 0.0 0.0
1.19760479041916 0.0 0.0
1.137724550898204 0.0 0.0
1.077844311377245 0.0 0.0
1.017964071856287 0.0 0.0
0.958083832335328 0.0 0.0
0.8982035928143723 0.0 0.0
0.8383233532934131 0.0 0.0
0.7784431137724539 0.0 0.0
0.7185628742514965 0.0 0.0
0.658682634730539 0.0 0.0
0.5988023952095816 0.0 0.0
0.5389221556886223 0.0 0.0
0.4790419161676631 0.0 0.0
0.4191616766467074 0.0 0.0
0.3592814371257482 0.0 0.0
0.2994011976047908 0.0 0.0
0.2395209580838316 0.0 0.0
0.1796407185628741 0.0 0.0
0.1197604790419167 0.0 0.0
0.05988023952095922 0.0 0.0
0.0 0.0588235294116454 0.0
0.0 0.1176470588233168 0.0
0.0 0.1764705882349203 0.0
0.0 0.2352941176465135 0.0
0.0 0.2941176470581066 0.0
0.0 0.3529411764696997 0.0
0.0 0.4117647058812929 0.0
0.0 0.4705882352928861 0.0
0.0 0.5294117647046425 0.0
0.0 0.5882352941165623 0.0
0.0 0.6470588235284821 0.0
0.0 0.7058823529404019 0.0
0.0 0.7647058823523216 0.0
0.0 0.8235294117642414 0.0
0.0 0.8823529411761613 0.0
0.0 0.941176470588081 0.0
9.496671432578891 0.5021202775764965 0.0
0.503328567417594 0.502120277573701 0.0
8.960949321310713 0.5028360638807292 0.0
1.039050678683441 0.5028360638815292 0.0
8.421726050444478 0.5013914029598455 0.0
1.578273949553219 0.5013914029599852 0.0
2.110012838156869 0.501717680037117 0.0
[...]
POINT_DATA 11134
VECTORS vector double
1.0 0.0 0.0
0.0 0.0 0.0
0.0 0.0 0.0
0.0 0.0 0.0
0.0 0.0 0.0
1.0 0.0 0.0
0.0 0.0 0.0
0.0 0.0 0.0
0.0 0.0 0.0
0.0 0.0 0.0
0.0 0.0 0.0
0.0 0.0 0.0
0.0 0.0 0.0
0.0 0.0 0.0
0.0 0.0 0.0
0.0 0.0 0.0
0.0 0.0 0.0
0.0 0.0 0.0
0.0 0.0 0.0
0.0 0.0 0.0
0.0 0.0 0.0
0.0 0.0 0.0
0.0 0.0 0.0
0.0 0.0 0.0
0.0 0.0 0.0
0.0 0.0 0.0
0.0 0.0 0.0
0.0 0.0 0.0
0.0 0.0 0.0
0.0 0.0 0.0
0.0 0.0 0.0
0.0 0.0 0.0
0.0 0.0 0.0
0.0 0.0 0.0
0.0 0.0 0.0
0.0 0.0 0.0
0.0 0.0 0.0
0.0 0.0 0.0
0.0 0.0 0.0
0.0 0.0 0.0
0.0 0.0 0.0
0.0 0.0 0.0
0.0 0.0 0.0
0.0 0.0 0.0
0.0 0.0 0.0
0.0 0.0 0.0
0.0 0.0 0.0
0.0 0.0 0.0
0.0 0.0 0.0
0.0 0.0 0.0
0.0 0.0 0.0
0.0 0.0 0.0
0.0 0.0 0.0
0.0 0.0 0.0
0.0 0.0 0.0
0.0 0.0 0.0
0.0 0.0 0.0
0.0 0.0 0.0
0.0 0.0 0.0
0.0 0.0 0.0
0.0 0.0 0.0
0.0 0.0 0.0
0.0 0.0 0.0
0.0 0.0 0.0
0.0 0.0 0.0
0.0 0.0 0.0
0.0 0.0 0.0
0.0 0.0 0.0
0.0 0.0 0.0
0.0 0.0 0.0
0.0 0.0 0.0
0.0 0.0 0.0
0.0 0.0 0.0
0.0 0.0 0.0
0.0 0.0 0.0
0.0 0.0 0.0
0.0 0.0 0.0
0.0 0.0 0.0
0.0 0.0 0.0
0.0 0.0 0.0
0.0 0.0 0.0
0.0 0.0 0.0
0.0 0.0 0.0
0.0 0.0 0.0
0.0 0.0 0.0
0.0 0.0 0.0
0.0 0.0 0.0
0.0 0.0 0.0
0.0 0.0 0.0
0.0 0.0 0.0
0.0 0.0 0.0
0.0 0.0 0.0
0.0 0.0 0.0
0.0 0.0 0.0
0.0 0.0 0.0
0.0 0.0 0.0
0.0 0.0 0.0
0.0 0.0 0.0
0.0 0.0 0.0
0.0 0.0 0.0
0.0 0.0 0.0
0.0 0.0 0.0
0.0 0.0 0.0
0.0 0.0 0.0
0.0 0.0 0.0
0.0 0.0 0.0
0.0 0.0 0.0
0.0 0.0 0.0
0.0 0.0 0.0
0.0 0.0 0.0
0.0 0.0 0.0
0.0 0.0 0.0
0.0 0.0 0.0
0.0 0.0 0.0
0.0 0.0 0.0
0.0 0.0 0.0
0.0 0.0 0.0
0.0 0.0 0.0
0.0 0.0 0.0
0.0 0.0 0.0
0.0 0.0 0.0
0.0 0.0 0.0
0.0 0.0 0.0
0.0 0.0 0.0
0.0 0.0 0.0
0.0 0.0 0.0
0.0 0.0 0.0
0.0 0.0 0.0
0.0 0.0 0.0
0.0 0.0 0.0
0.0 0.0 0.0
0.0 0.0 0.0
0.0 0.0 0.0
0.0 0.0 0.0
0.0 0.0 0.0
0.0 0.0 0.0
0.0 0.0 0.0
0.0 0.0 0.0
0.0 0.0 0.0
0.0 0.0 0.0
0.0 0.0 0.0
0.0 0.0 0.0
0.0 0.0 0.0
0.0 0.0 0.0
0.0 0.0 0.0
0.0 0.0 0.0
0.0 0.0 0.0
0.0 0.0 0.0
0.0 0.0 0.0
0.0 0.0 0.0
0.0 0.0 0.0
0.0 0.0 0.0
0.0 0.0 0.0
0.0 0.0 0.0
0.0 0.0 0.0
0.0 0.0 0.0
0.0 0.0 0.0
0.0 0.0 0.0
0.0 0.0 0.0
0.0 0.0 0.0
0.0 0.0 0.0
0.0 0.0 0.0
0.0 0.0 0.0
0.0 0.0 0.0
0.0 0.0 0.0
0.0 0.0 0.0
0.0 0.0 0.0
0.0 0.0 0.0
0.0 0.0 0.0
0.0 0.0 0.0
0.0 0.0 0.0
0.445732269837 0.0722531405409 0.0
0.785512984015 0.046409520311 0.0
1.00707899561 0.0272477701778 0.0
1.15682532122 0.0112162534177 0.0
1.23658820832 0.00525933868292 0.0
1.25938490684 0.00290181635268 0.0
1.27140472296 0.000939016431342 0.0
1.27515143153 6.80312693641e-05 0.0
1.27493036553 -0.000246331024606 0.0
1.27169449561 -0.00120352955114 0.0
1.26097238821 -0.00304067278174 0.0
1.23072851613 -0.0096709636572 0.0
1.16641065835 -0.0150570995496 0.0
1.03426492095 -0.0253465093627 0.0
0.813294978954 -0.028942401628 0.0
0.441812347655 -0.0695959689591 0.0
0.0 0.0 0.0
0.0 0.0 0.0
0.0 0.0 0.0
0.0 0.0 0.0
0.0 0.0 0.0
0.0 0.0 0.0
0.0 0.0 0.0
0.0 0.0 0.0
0.0 0.0 0.0
0.0 0.0 0.0
0.0 0.0 0.0
0.0 0.0 0.0
0.0 0.0 0.0
0.0 0.0 0.0
0.0 0.0 0.0
0.0 0.0 0.0
0.0 0.0 0.0
0.0 0.0 0.0
0.0 0.0 0.0
0.0 0.0 0.0
0.0 0.0 0.0
0.0 0.0 0.0
0.0 0.0 0.0
0.0 0.0 0.0
0.0 0.0 0.0
0.0 0.0 0.0
0.0 0.0 0.0
0.0 0.0 0.0
0.0 0.0 0.0
0.0 0.0 0.0
0.0 0.0 0.0
0.0 0.0 0.0
0.0 0.0 0.0
0.0 0.0 0.0
0.0 0.0 0.0
0.0 0.0 0.0
0.0 0.0 0.0
0.0 0.0 0.0
0.0 0.0 0.0
0.0 0.0 0.0
0.0 0.0 0.0
0.0 0.0 0.0
0.0 0.0 0.0
0.0 0.0 0.0
0.0 0.0 0.0
0.0 0.0 0.0
0.0 0.0 0.0
0.0 0.0 0.0
0.0 0.0 0.0
0.0 0.0 0.0
0.0 0.0 0.0
0.0 0.0 0.0
0.0 0.0 0.0
0.0 0.0 0.0
0.0 0.0 0.0
0.0 0.0 0.0
0.0 0.0 0.0
0.0 0.0 0.0
0.0 0.0 0.0
0.0 0.0 0.0
0.0 0.0 0.0
0.0 0.0 0.0
0.0 0.0 0.0
0.0 0.0 0.0
0.0 0.0 0.0
0.0 0.0 0.0
0.0 0.0 0.0
0.0 0.0 0.0
0.0 0.0 0.0
0.0 0.0 0.0
0.0 0.0 0.0
0.0 0.0 0.0
0.0 0.0 0.0
0.0 0.0 0.0
0.0 0.0 0.0
0.0 0.0 0.0
0.0 0.0 0.0
0.0 0.0 0.0
0.0 0.0 0.0
0.0 0.0 0.0
0.0 0.0 0.0
0.0 0.0 0.0
0.0 0.0 0.0
0.0 0.0 0.0
0.0 0.0 0.0
0.0 0.0 0.0
0.0 0.0 0.0
0.0 0.0 0.0
0.0 0.0 0.0
0.0 0.0 0.0
0.0 0.0 0.0
0.0 0.0 0.0
0.0 0.0 0.0
0.0 0.0 0.0
0.0 0.0 0.0
0.0 0.0 0.0
0.0 0.0 0.0
0.0 0.0 0.0
0.0 0.0 0.0
0.0 0.0 0.0
0.0 0.0 0.0
0.0 0.0 0.0
0.0 0.0 0.0
0.0 0.0 0.0
0.0 0.0 0.0
0.0 0.0 0.0
0.0 0.0 0.0
0.0 0.0 0.0
0.0 0.0 0.0
0.0 0.0 0.0
0.0 0.0 0.0
0.0 0.0 0.0
0.0 0.0 0.0
0.0 0.0 0.0
0.0 0.0 0.0
0.0 0.0 0.0
0.0 0.0 0.0
0.0 0.0 0.0
0.0 0.0 0.0
0.0 0.0 0.0
0.0 0.0 0.0
0.0 0.0 0.0
0.0 0.0 0.0
0.0 0.0 0.0
0.0 0.0 0.0
0.0 0.0 0.0
0.0 0.0 0.0
0.0 0.0 0.0
0.0 0.0 0.0
0.0 0.0 0.0
0.0 0.0 0.0
0.0 0.0 0.0
0.0 0.0 0.0
0.0 0.0 0.0
0.0 0.0 0.0
0.0 0.0 0.0
0.0 0.0 0.0
0.0 0.0 0.0
0.0 0.0 0.0
0.0 0.0 0.0
0.0 0.0 0.0
0.0 0.0 0.0
0.0 0.0 0.0
0.0 0.0 0.0
0.0 0.0 0.0
0.0 0.0 0.0
0.0 0.0 0.0
0.0 0.0 0.0
0.0 0.0 0.0
0.0 0.0 0.0
0.0 0.0 0.0
0.0 0.0 0.0
0.0 0.0 0.0
0.0 0.0 0.0
0.0 0.0 0.0
0.0 0.0 0.0
0.0 0.0 0.0
0.0 0.0 0.0
0.0 0.0 0.0
0.0 0.0 0.0
0.0 0.0 0.0
0.0 0.0 0.0
0.0 0.0 0.0
0.0 0.0 0.0
0.0 0.0 0.0
0.0 0.0 0.0
1.0 0.0 0.0
1.0 0.0 0.0
1.0 0.0 0.0
1.0 0.0 0.0
1.0 0.0 0.0
1.0 0.0 0.0
1.0 0.0 0.0
1.0 0.0 0.0
1.0 0.0 0.0
1.0 0.0 0.0
1.0 0.0 0.0
1.0 0.0 0.0
1.0 0.0 0.0
1.0 0.0 0.0
1.0 0.0 0.0
1.0 0.0 0.0
1.2774742133 0.00012841268924 0.0
1.13970226586 -0.0011472963044 0.0
1.27631447583 0.000341991278431 0.0
1.26712029086 -0.000456250994655 0.0
1.27466584986 -0.000787193417012 0.0
1.27622958812 -0.000658619664012 0.0
1.27625447963 -0.00105923039844 0.0
1.27541068116 -0.0010337449186 0.0
1.27523009845 0.00229087238799 0.0
1.27585947263 -0.000786205540077 0.0
1.2742531018 -0.000531335190177 0.0
1.27633143923 0.000506384268827 0.0
1.27514953385 -0.000263724886745 0.0
1.27470670641 0.000990959184539 0.0
1.27498512576 -0.000223335541305 0.0
1.27325198952 0.001711509188 0.0
1.27355752568 -0.000851590952212 0.0
1.2752448492 -0.00184864671732 0.0
1.25133928853 0.000828143588815 0.0
1.24225560693 -0.0372055710351 0.0
1.25171488935 -1.84683000203e-05 0.0
1.24131508904 0.0397612853347 0.0
1.250450559 -0.000282487550691 0.0
1.2511205437 0.00103279092679 0.0
1.24915773416 -0.000186059641647 0.0
1.24856616847 -0.000112706533841 0.0
1.25011736838 -0.000504128130433 0.0
1.24901701028 0.00352656952733 0.0
1.24965137979 4.52414429702e-05 0.0
1.24967309254 0.00123849098601 0.0
1.24733753261 0.000505096014985 0.0
1.24789450512 0.00179520320259 0.0
1.24995953306 0.000846364297026 0.0
1.2492498449 0.000410145871534 0.0
1.24967238844 0.00122771993761 0.0
1.24921377852 0.000880219676551 0.0
1.24439579809 0.000963109699494 0.0
1.24607558203 0.00106141534098 0.0
1.24806018981 0.000746103397266 0.0
1.24783182091 0.000748482337695 0.0
1.24793100201 -0.000840933043143 0.0
1.24791203605 0.000896247378824 0.0
1.24843973209 0.0023601946181 0.0
1.24697920051 -0.00174982747554 0.0
1.25060205115 -0.00163499788846 0.0
1.25223316506 -0.00220087049695 0.0
1.24956856273 -0.000989546627453 0.0
1.24910701344 0.00133929431259 0.0
1.24617109181 -0.00148609483715 0.0
1.24679833426 -0.00165549778735 0.0
1.23340227752 0.000450902728597 0.0
1.23393578751 -0.00244733059738 0.0
1.11315332804 -0.0869813005117 0.0
1.23017509768 0.00171988184763 0.0
1.23989475596 -0.00179720916787 0.0
1.10519771785 0.0769926457811 0.0
1.19012943872 -0.000415554982454 0.0
1.19733444939 -0.00896122070842 0.0
1.17662211272 -0.00340271315307 0.0
1.17554282057 -0.000422953817895 0.0
1.1873734485 -0.00404310688838 0.0
1.18891883741 -0.00403610567601 0.0
1.18942299808 0.0045479481201 0.0
1.17961889401 0.00352244085408 0.0
1.1892441093 -0.00244479110507 0.0
1.19137975082 -0.00151166816803 0.0
1.18849885335 0.00389270608463 0.0
1.19051667746 -0.00318837719608 0.0
1.19046404279 -0.000807774846216 0.0
1.19017000848 -0.00212959087419 0.0
1.19006681578 0.00011265355187 0.0
1.18948472888 -0.00248529636865 0.0
1.19019876689 0.000222753528869 0.0
1.18232844747 -0.00166337451736 0.0
1.1891434571 -0.00400293591472 0.0
1.18753317005 0.00477029672891 0.0
1.18955595464 -0.00244517484851 0.0
1.18659289024 0.00352216939298 0.0
1.18186681829 0.00416351829165 0.0
1.18201850494 -0.0013960284195 0.0
1.19145449074 -0.00153052852647 0.0
1.18818921436 0.000207125393684 0.0
1.19704442689 0.0016471313215 0.0
1.20341569393 0.00935060583327 0.0
1.19291346399 -0.0005585766165 0.0
1.19429317894 -0.00066724358127 0.0
1.18964711542 0.00166825111295 0.0
1.21457503463 -0.0760353699333 0.0
1.17758748127 0.00122811364485 0.0
1.21165305382 0.0776077937309 0.0
1.14496426565 0.000231530828979 0.0
1.1818791882 -0.00172844044615 0.0
1.03563951287 -0.00487840296991 0.0
1.27592263331 -0.000217341998505 0.0
1.27564158384 -0.000118900050367 0.0
1.27449034876 -0.0018960462764 0.0
1.27432298273 -0.000360329544979 0.0
1.27521654392 3.32157962016e-05 0.0
1.27295356932 0.00175757782677 0.0
1.27507798274 -2.41181442736e-05 0.0
1.2752665298 0.000939362451712 0.0
1.27574081799 -0.000127307552931 0.0
1.27661931065 -0.000446377676029 0.0
1.27467598892 -0.00119135786695 0.0
1.27612971043 -0.000784667194981 0.0
1.274281227 0.000446205222903 0.0
1.27628038817 0.000183055400022 0.0
1.27608048711 0.00236688127572 0.0
1.27564094104 -0.000811951220508 0.0
1.2390200307 0.000172034775238 0.0
1.27688156566 0.00112622142566 0.0
1.03714589661 -0.00160272673537 0.0
1.03410820751 0.00201950146992 0.0
1.04238113643 -0.00215762569633 0.0
1.04522058719 0.00369652743595 0.0
1.0428336477 -0.00243335865374 0.0
1.04305557469 0.00296598001878 0.0
1.04327427352 -0.00276746637187 0.0
1.04453450418 0.00200381474432 0.0
1.04598892028 -0.000735804893446 0.0
1.04749077902 -0.00257180060916 0.0
1.04789624448 0.000553205160226 0.0
1.04011354875 -0.000126734053879 0.0
1.04207828206 0.00186026112215 0.0
1.03820950169 0.00365544928659 0.0
1.05710519308 -0.0184638761271 0.0
1.03008225719 -0.00169939315754 0.0
1.03008934719 0.000801408905519 0.0
1.0199095349 0.00109307832466 0.0
1.02066277457 -0.000810515432916 0.0
1.02704567652 -0.000186135084171 0.0
1.0258763925 0.00140918247793 0.0
1.0281402359 0.00315515244095 0.0
1.0331615636 0.000993644591276 0.0
1.02858746366 0.00254239619048 0.0
1.03358156759 -0.000875734854862 0.0
1.03105657147 -0.000760946622619 0.0
1.03195823668 0.00204671627096 0.0
1.03001156913 0.00143274853698 0.0
1.0304247871 0.000196255709416 0.0
1.02962539419 -0.0003500035015 0.0
1.03126045548 0.00214845580633 0.0
1.02475222845 -8.90233214595e-05 0.0
1.0284322379 -0.000422232529766 0.0
1.0303787862 -0.000537231582159 0.0
1.0298913051 0.000818503058208 0.0
1.02959604176 -0.00035863276573 0.0
1.02970026413 5.61256274349e-05 0.0
1.03093513229 -0.0024881505071 0.0
1.03172508343 0.00252153844227 0.0
1.03053546487 8.00144014457e-05 0.0
1.27700762642 0.000695288421616 0.0
1.19450167643 -0.00901585305226 0.0
1.02389509263 -0.00115362248381 0.0
1.27481725074 -0.00106885458093 0.0
1.27652915981 0.00119537748751 0.0
1.27535136003 -0.000266580009507 0.0
1.274221335 0.00172983337835 0.0
1.27507861197 0.000764165364476 0.0
1.27448845229 -0.000385775579545 0.0
1.2755579322 -0.00143401718032 0.0
1.27509238341 -0.00105192901604 0.0
1.27308379311 0.00121684876809 0.0
1.27501371554 -6.43203602937e-05 0.0
1.27447643234 -9.63757436033e-05 0.0
1.2754429036 -0.000666733538969 0.0
1.27583294811 6.90106672352e-05 0.0
0.993830131784 0.00418135252753 0.0
0.995509499411 -0.000295168265752 0.0
1.00990016774 0.00358449053701 0.0
1.03090347682 0.0139968405179 0.0
1.12998381117 -0.142693085082 0.0
1.03123501073 0.00155618756483 0.0
1.01485658327 0.00753916142043 0.0
1.07023386605 -0.044732533321 0.0
1.01328633285 -0.00476605709402 0.0
1.01193297912 0.0022631120468 0.0
1.01911228989 -0.000847361791953 0.0
1.02314325539 0.000463067039413 0.0
1.018207155 -0.00337869773363 0.0
1.02081592157 0.00273566611973 0.0
1.03241225196 -0.0025375705641 0.0
1.13328148845 0.142491398649 0.0
1.0210896362 -0.00333846714064 0.0
1.02259691344 0.00345427134285 0.0
1.01286879742 -0.00145577367044 0.0
1.02511687648 0.00354405794593 0.0
1.00328331472 0.00502797337675 0.0
1.02570028552 0.00393671134355 0.0
1.0015453496 -0.00412900986677 0.0
1.26328923829 4.18882950191e-05 0.0
1.26411573663 0.00431680817534 0.0
0.995664696526 0.00388793232445 0.0
1.00136363282 -0.00513549215917 0.0
1.26391262077 -0.00138703752607 0.0
1.2647884906 -0.00106322934169 0.0
0.998044996411 0.00288196127907 0.0
1.05774535029 0.0370728411836 0.0
1.26155421836 0.000884737011304 0.0
1.26317802728 -0.00107809019637 0.0
1.26379718309 -0.00127140188719 0.0
1.26475178358 0.00244397393555 0.0
1.26445878008 -1.69409671129e-05 0.0
1.2635658334 8.73041738982e-05 0.0
1.26380647731 0.000915136017127 0.0
1.26414820478 0.000331615378729 0.0
1.26435570152 0.00024146627364 0.0
0.982544995485 0.00350885359131 0.0
0.956606515626 0.00103394757312 0.0
0.967823186552 -0.00168016330263 0.0
0.994838095091 -3.81846220851e-05 0.0
0.97556228868 0.00482528548588 0.0
1.14680245963 -0.102822220022 0.0
0.978936567121 0.000905783888486 0.0
1.14987548616 0.098513444992 0.0
1.26441931519 0.00050390323644 0.0
1.26558642452 -0.00137363143408 0.0
1.26867840484 -0.000855588246587 0.0
1.26854389807 -0.00132986196522 0.0
1.26587028325 -0.000286459952942 0.0
1.26579980953 -0.000243423506906 0.0
1.2652472448 0.00190950680166 0.0
1.26525002121 -0.000338549447921 0.0
1.26602036467 0.00131724445428 0.0
1.26607852194 0.000684603741457 0.0
1.25981469895 -0.0169772657891 0.0
1.26606825144 0.00156717431997 0.0
1.26581245764 -0.000520792541755 0.0
1.26597854393 0.000598869463984 0.0
1.26486114108 -0.00128145101335 0.0
1.26387715664 -0.000208609694581 0.0
1.26389165734 -0.000429026293245 0.0
1.26464559179 0.000829481203933 0.0
1.26493989872 -0.000645542343573 0.0
1.26482551766 -0.00107290521002 0.0
1.26276103307 -0.000765884112368 0.0
1.26461054953 -0.0009822065426 0.0
1.26279309937 -0.000547408483759 0.0
1.26543806076 0.000716557407001 0.0
1.26377665991 0.00302029820991 0.0
1.26531293892 -0.000330460262545 0.0
1.2646754863 0.00292555266981 0.0
1.26366962423 -0.00163214741711 0.0
1.19720108097 0.0390501940708 0.0
1.26980230984 0.000872806160568 0.0
1.26571428694 -0.000706276503268 0.0
1.26578030391 -0.00283164160128 0.0
1.27535746713 0.000260720591109 0.0
1.09405222556 -0.0249134403298 0.0
1.02646750286 -0.0346494407628 0.0
1.26499257281 -7.63413183612e-05 0.0
1.02403322859 0.0342898974634 0.0
1.26304687575 -0.000860393272135 0.0
1.26393251264 -0.000988641561316 0.0
1.14219642838 0.0554047177583 0.0
1.26814185765 -0.000699958248327 0.0
1.26749706924 0.00162279834985 0.0
1.26434423939 0.000771499573008 0.0
1.26378768883 0.00153750147354 0.0
1.26784077774 -0.000918048844322 0.0
1.27028903681 -0.000822069484273 0.0
1.26153305245 0.0134657682405 0.0
1.2701053243 0.00106861285324 0.0
1.25410978288 -0.00218558866452 0.0
1.25567019189 0.00110321385732 0.0
1.25479173738 -0.0017087479125 0.0
1.25362921237 0.00304455226739 0.0
1.25465919722 -0.000871014024481 0.0
1.25488248105 -0.000480602294893 0.0
1.25344631455 -0.000482519012611 0.0
1.25507900154 0.00026497525832 0.0
1.25525552115 0.000258337744033 0.0
1.25515505948 -0.00296131945545 0.0
1.25506270892 -0.00023249436578 0.0
1.25427441104 -0.00225972869169 0.0
1.25086842622 -0.000940664456275 0.0
1.27353786506 -0.00162802895605 0.0
1.27459978107 0.000962427763537 0.0
1.18025989687 -0.0339661516223 0.0
1.27230505165 0.000441176873043 0.0
0.844282239101 0.00270011633381 0.0
0.847049947634 -0.0023794330616 0.0
1.25212144439 0.00110779763829 0.0
1.15742458282 -0.0691031917484 0.0
0.816106164279 -0.000444589764777 0.0
0.817178283967 0.000362988448333 0.0
0.794617355683 0.00162907100059 0.0
0.789863493064 0.00158037700693 0.0
0.792189483191 0.00244478068489 0.0
0.788895752853 0.00315065321638 0.0
0.790761925615 0.00160291996634 0.0
0.787979877177 0.00284842696135 0.0
0.790311166642 0.00198964662196 0.0
0.764320975229 0.00469161261937 0.0
0.761340132918 -0.000832588293497 0.0
0.835570629088 -0.000747562759078 0.0
0.839923834036 0.00143650462072 0.0
0.853465478032 -0.000712909524259 0.0
0.858337703069 -0.00742129951639 0.0
0.836125225438 0.00751474031562 0.0
0.839521803954 -0.00415479039874 0.0
0.779960229181 -0.00834720905327 0.0
0.778914905909 0.00140076026883 0.0
0.848555677643 -0.00265053775907 0.0
0.855424895319 -0.00280539050537 0.0
0.860836941647 0.000303335242279 0.0
0.863072076464 -0.00323438761517 0.0
0.864509650966 -0.00383159457406 0.0
0.8634091617 -0.00190595274448 0.0
0.862799664222 -0.00323183874392 0.0
0.862845486484 -0.00202355604058 0.0
0.862908378589 -0.00342456778776 0.0
0.851465197845 0.00110443096614 0.0
0.844134177603 0.00028298710884 0.0
1.27369487365 -0.000699800034505 0.0
1.07531955051 0.0314014706861 0.0
0.769665734691 -0.00235845155169 0.0
0.865242057692 -0.0281674482224 0.0
0.798499788025 0.00107147904624 0.0
0.901198108554 0.0383436054591 0.0
1.26634545028 -0.00113039929049 0.0
1.26512308202 -0.00182282651616 0.0
1.26716267215 -0.000120394277006 0.0
1.26612658648 -0.00798116170473 0.0
1.22939612272 -0.000681781501215 0.0
1.22827169711 -0.0544940674967 0.0
0.787794281791 0.00187768557989 0.0
1.2651534287 0.00250890085006 0.0
1.26681035934 -0.000951925620479 0.0
1.26510336976 -0.00128618860625 0.0
1.26682136791 0.000122320021809 0.0
1.26583266448 -0.000718160170395 0.0
1.26556034312 0.00014925946283 0.0
1.2658596803 -0.000529027374411 0.0
0.801125173324 0.000618551334251 0.0
0.773570155664 0.00504449825531 0.0
1.07854622596 -0.121579332217 0.0
0.771070914532 -0.00518983549874 0.0
1.08012618222 0.11974511301 0.0
0.760152787236 -0.000334783731821 0.0
0.761184037422 0.0029502268859 0.0
0.749198984912 0.0109023369014 0.0
0.743793019464 -0.00912232617315 0.0
0.792971141313 0.00956105845286 0.0
0.799192205893 -0.00533567948862 0.0
0.751067241394 -0.00902545108577 0.0
0.75365275915 0.0116206827251 0.0
0.750283375518 -0.00881932507815 0.0
0.751425930658 0.0114572424859 0.0
0.751137564307 0.0115986155975 0.0
0.742430946585 -0.00638168507849 0.0
0.743916959894 0.00233606418338 0.0
0.742953601337 0.00703234413188 0.0
0.749056574581 -0.00906397961411 0.0
0.740043362863 0.0084559351192 0.0
0.744627225752 -0.0109278305254 0.0
0.741772480359 0.00906221686477 0.0
0.744954275554 -0.0105482561375 0.0
0.752395308241 -0.00722217366476 0.0
1.27379789443 -0.000211675121849 0.0
1.27450033331 0.000174379975317 0.0
1.27506305962 0.000255136623638 0.0
1.27378336929 0.000290492545151 0.0
1.27264977119 0.00165844186075 0.0
1.27329726719 0.000165107014413 0.0
1.27385962371 0.000987823726241 0.0
1.27325594744 0.00118405074361 0.0
1.27440766738 -0.000311772256618 0.0
1.27355929468 -0.00152964366878 0.0
1.2747047946 -0.00128915510129 0.0
1.27445230126 0.0018804493986 0.0
1.27366831 -0.00116961290577 0.0
1.22060653666 0.0122606322959 0.0
1.27645730598 0.00106255978501 0.0
1.23053979975 0.0014341893714 0.0
1.23706465885 0.0239333385036 0.0
1.22639390239 -9.68603074475e-05 0.0
1.22846366165 -0.0022303368277 0.0
1.22991703594 0.00218568390033 0.0
1.22801041696 -0.000836402112904 0.0
1.26999828546 -0.00159428873458 0.0
1.27136857524 -0.000417003953528 0.0
0.671936018318 -0.00084247866512 0.0
0.669642664366 0.00151731925519 0.0
0.754295260146 -0.000885057283523 0.0
0.718308507435 0.00385628807112 0.0
0.685904927679 0.00410916255068 0.0
0.689273095583 -0.00293819120693 0.0
0.67481699936 0.00303411912012 0.0
0.678427716536 -0.00244013074086 0.0
0.674148069203 0.00188728116093 0.0
0.678025207704 -0.00111144567055 0.0
0.675211089618 0.00154802130347 0.0
0.675831983792 -0.00109145859341 0.0
0.672667166121 0.00280646455737 0.0
0.665452187403 -0.00223306651043 0.0
0.6680226333 0.00256999497048 0.0
1.22186453653 -0.000187952360694 0.0
1.21838975251 -0.00115870181804 0.0
0.748741692542 -0.00963955959449 0.0
0.748815803679 0.0112397405578 0.0
1.01135079965 -0.00657853922336 0.0
1.27539790523 -0.000194503358074 0.0
1.27032273886 -0.000604520325748 0.0
1.27065962277 0.00179505396074 0.0
0.690831873779 -0.0106711115899 0.0
1.27089595723 0.00099036810366 0.0
1.26966998486 -0.000704410898847 0.0
1.26978610474 0.00158668099303 0.0
1.27039877438 -0.000473739201748 0.0
1.27020315419 -0.000446805291001 0.0
0.697676062396 -0.00717105787946 0.0
0.693388566582 0.00385262434333 0.0
0.695742249713 -0.00544865414954 0.0
0.696297542285 0.00349382842387 0.0
0.701577529006 0.00416003642218 0.0
0.703762202629 -0.00174439943987 0.0
0.748487861969 8.03249787368e-05 0.0
0.749308672201 -0.0018544644707 0.0
0.752463279644 0.00260676080338 0.0
0.781339281251 -0.012910286378 0.0
0.735227099825 -0.000197272347638 0.0
0.733327114567 -0.00275413466797 0.0