# vtk DataFile Version 2.0
2D Simulation Python
ASCII
DATASET UNSTRUCTURED_GRID
FIELD FieldData 1
NODES 1 2 int
11134 7299

POINTS 11134 double
0.0 1.0 0.0
1.725 1.0 0.0
8.275 1.0 0.0
10.0 1.0 0.0
10.0 0.0 0.0
0.0 0.0 0.0
0.05948275862057954 1.0 0.0
0.1189655172411507 1.0 0.0
0.1784482758617532 1.0 0.0
0.2379310344823185 1.0 0.0
0.2974137931028384 1.0 0.0
0.3568965517233564 1.0 0.0
0.4163793103438745 1.0 0.0
0.475862068964385 1.0 0.0
0.535344827584889 1.0 0.0
0.5948275862053855 1.0 0.0
0.654310344825882 1.0 0.0
0.7137931034463786 1.0 0.0
0.7732758620668752 1.0 0.0
0.8327586206874149 1.0 0.0
0.8922413793081027 1.0 0.0
0.9517241379289384 1.0 0.0
1.011206896549752 1.0 0.0
1.070689655170612 1.0 0.0
1.130172413791474 1.0 0.0
1.189655172412335 1.0 0.0
1.249137931033183 1.0 0.0
1.308620689654105 1.0 0.0
1.368103448274985 1.0 0.0
1.427586206895818 1.0 0.0
1.487068965516628 1.0 0.0
1.546551724137449 1.0 0.0
1.606034482758285 1.0 0.0
1.665517241379139 1.0 0.0
1.784545454545345 1.0 0.0
1.844090909090676 1.0 0.0
1.903636363635991 1.0 0.0
1.963181818181336 1.0 0.0
2.022727272726716 1.0 0.0
2.082272727272112 1.0 0.0
2.141818181817408 1.0 0.0
2.201363636362702 1.0 0.0
2.260909090908037 1.0 0.0
2.320454545453433 1.0 0.0
2.379999999998759 1.0 0.0
2.439545454544053 1.0 0.0
2.499090909089358 1.0 0.0
2.558636363634754 1.0 0.0
2.618181818180109 1.0 0.0
2.677727272725404 1.0 0.0
2.737272727270631 1.0 0.0
2.796818181815906 1.0 0.0
2.856363636361191 1.0 0.0
2.915909090906408 1.0 0.0
2.975454545451703 1.0 0.0
3.034999999997049 1.0 0.0
3.094545454542377 1.0 0.0
3.154090909087591 1.0 0.0
3.21363636363288 1.0 0.0
3.273181818178196 1.0 0.0
3.332727272723555 1.0 0.0
3.392272727268849 1.0 0.0
3.451818181814208 1.0 0.0
3.511363636359524 1.0 0.0
3.570909090904812 1.0 0.0
3.630454545450026 1.0 0.0
3.689999999995355 1.0 0.0
3.749545454540702 1.0 0.0
3.809090909085996 1.0 0.0
3.868636363631291 1.0 0.0
3.928181818176585 1.0 0.0
3.987727272721861 1.0 0.0
4.047272727267021 1.0 0.0
4.106818181812208 1.0 0.0
4.166363636357625 1.0 0.0
4.225909090903122 1.0 0.0
4.285454545448432 1.0 0.0
4.34499999999356 1.0 0.0
4.404545454538917 1.0 0.0
4.464090909084414 1.0 0.0
4.523636363629791 1.0 0.0
4.583181818174936 1.0 0.0
4.642727272720208 1.0 0.0
4.702272727265705 1.0 0.0
4.761818181811142 1.0 0.0
4.821363636356348 1.0 0.0
4.880909090901557 1.0 0.0
4.940454545446997 1.0 0.0
4.999999999992493 1.0 0.0
5.059545454538018 1.0 0.0
5.119090909083717 1.0 0.0
5.17863636362933 1.0 0.0
5.238181818174827 1.0 0.0
5.297727272720321 1.0 0.0
5.357272727265989 1.0 0.0
5.416818181811662 1.0 0.0
5.476363636357158 1.0 0.0
5.535909090902654 1.0 0.0
5.595454545448262 1.0 0.0
5.65499999999396 1.0 0.0
5.714545454539491 1.0 0.0
5.774090909085032 1.0 0.0
5.83363636363093 1.0 0.0
5.893181818176673 1.0 0.0
5.952727272722171 1.0 0.0
6.012272727267668 1.0 0.0
6.071818181813491 1.0 0.0
6.131363636359353 1.0 0.0
6.190909090904849 1.0 0.0
6.250454545450346 1.0 0.0
6.309999999996052 1.0 0.0
6.369545454541951 1.0 0.0
6.429090909087529 1.0 0.0
6.488636363633026 1.0 0.0
6.548181818178611 1.0 0.0
6.60772727272451 1.0 0.0
6.667272727270209 1.0 0.0
6.726818181815705 1.0 0.0
6.786363636361202 1.0 0.0
6.845909090907071 1.0 0.0
6.905454545452889 1.0 0.0
6.964999999998385 1.0 0.0
7.024545454543881 1.0 0.0
7.084090909089378 1.0 0.0
7.143636363634876 1.0 0.0
7.20318181818037 1.0 0.0
7.262727272725868 1.0 0.0
7.322272727271365 1.0 0.0
7.381818181816859 1.0 0.0
7.441363636362357 1.0 0.0
7.500909090907854 1.0 0.0
7.560454545453348 1.0 0.0
7.619999999998846 1.0 0.0
7.679545454544343 1.0 0.0
7.739090909089839 1.0 0.0
7.798636363635335 1.0 0.0
7.858181818180832 1.0 0.0
7.917727272726328 1.0 0.0
7.977272727271824 1.0 0.0
8.036818181817441 1.0 0.0
8.09636363636334 1.0 0.0
8.155909090909008 1.0 0.0
8.215454545454504 1.0 0.0
8.334482758620055 1.0 0.0
8.393965517240051 1.0 0.0
8.453448275859904 1.0 0.0
8.51293103448045 1.0 0.0
8.572413793100301 1.0 0.0
8.631896551720153 1.0 0.0
8.6913793103407 1.0 0.0
8.750862068961245 1.0 0.0
8.810344827581792 1.0 0.0
8.869827586202339 1.0 0.0
8.929310344822884 1.0 0.0
8.988793103443431 1.0 0.0
9.048275862063978 1.0 0.0
9.107758620684523 1.0 0.0
9.16724137930507 1.0 0.0
9.226724137925617 1.0 0.0
9.286206896546162 1.0 0.0
9.345689655167401 1.0 0.0
9.405172413788595 1.0 0.0
9.46465517240963 1.0 0.0
9.524137931030667 1.0 0.0
9.583620689651704 1.0 0.0
9.643103448272907 1.0 0.0
9.702586206894148 1.0 0.0
9.762068965515388 1.0 0.0
9.821551724136627 1.0 0.0
9.881034482757867 1.0 0.0
9.940517241378963 1.0 0.0
10.0 0.9411764705879904 0.0
10.0 0.882352941175982 0.0
10.0 0.8235294117645425 0.0
10.0 0.764705882353186 0.0
10.0 0.7058823529418295 0.0
10.0 0.6470588235304731 0.0
10.0 0.5882352941191167 0.0
10.0 0.5294117647077601 0.0
10.0 0.4705882352960771 0.0
10.0 0.4117647058840672 0.0
10.0 0.3529411764720576 0.0
10.0 0.2941176470600479 0.0
10.0 0.2352941176480381 0.0
10.0 0.1764705882360285 0.0
10.0 0.1176470588240187 0.0
10.0 0.05882352941200908 0.0
9.940119760479043 0.0 0.0
9.880239520958083 0.0 0.0
9.820359281437126 0.0 0.0
9.760479041916167 0.0 0.0
9.70059880239521 0.0 0.0
9.640718562874252 0.0 0.0
9.580838323353293 0.0 0.0
9.520958083832335 0.0 0.0
9.461077844311376 0.0 0.0
9.401197604790418 0.0 0.0
9.34131736526946 0.0 0.0
9.281437125748502 0.0 0.0
9.221556886227543 0.0 0.0
9.161676646706585 0.0 0.0
9.101796407185628 0.0 0.0
9.041916167664668 0.0 0.0
8.982035928143711 0.0 0.0
8.922155688622752 0.0 0.0
8.862275449101794 0.0 0.0
8.802395209580837 0.0 0.0
8.742514970059878 0.0 0.0
8.68263473053892 0.0 0.0
8.622754491017961 0.0 0.0
8.562874251497004 0.0 0.0
8.502994011976044 0.0 0.0
8.443113772455087 0.0 0.0
8.38323353293413 0.0 0.0
8.32335329341317 0.0 0.0
8.263473053892213 0.0 0.0
8.203592814371254 0.0 0.0
8.143712574850296 0.0 0.0
8.083832335329337 0.0 0.0
8.02395209580838 0.0 0.0
7.964071856287422 0.0 0.0
7.904191616766464 0.0 0.0
7.844311377245505 0.0 0.0
7.784431137724548 0.0 0.0
7.72455089820359 0.0 0.0
7.664670658682631 0.0 0.0
7.604790419161674 0.0 0.0
7.544910179640715 0.0 0.0
7.485029940119757 0.0 0.0
7.425149700598799 0.0 0.0
7.36526946107784 0.0 0.0
7.305389221556883 0.0 0.0
7.245508982035925 0.0 0.0
7.185628742514966 0.0 0.0
7.125748502994009 0.0 0.0
7.065868263473051 0.0 0.0
7.005988023952092 0.0 0.0
6.946107784431135 0.0 0.0
6.886227544910177 0.0 0.0
6.826347305389219 0.0 0.0
6.766467065868261 0.0 0.0
6.706586826347303 0.0 0.0
6.646706586826344 0.0 0.0
6.586826347305387 0.0 0.0
6.526946107784428 0.0 0.0
6.46706586826347 0.0 0.0
6.407185628742512 0.0 0.0
6.347305389221554 0.0 0.0
6.287425149700596 0.0 0.0
6.227544910179638 0.0 0.0
6.16766467065868 0.0 0.0
6.107784431137722 0.0 0.0
6.047904191616764 0.0 0.0
5.988023952095805 0.0 0.0
5.928143712574848 0.0 0.0
5.868263473053889 0.0 0.0
5.808383233532932 0.0 0.0
5.748502994011973 0.0 0.0
5.688622754491016 0.0 0.0
5.628742514970057 0.0 0.0
5.568862275449099 0.0 0.0
5.508982035928141 0.0 0.0
5.449101796407183 0.0 0.0
5.389221556886225 0.0 0.0
5.329341317365267 0.0 0.0
5.269461077844309 0.0 0.0
5.209580838323351 0.0 0.0
5.149700598802393 0.0 0.0
5.089820359281434 0.0 0.0
5.029940119760477 0.0 0.0
4.970059880239518 0.0 0.0
4.91017964071856 0.0 0.0
4.850299401197602 0.0 0.0
4.790419161676644 0.0 0.0
4.730538922155686 0.0 0.0
4.670658682634729 0.0 0.0
4.610778443113769 0.0 0.0
4.550898203592812 0.0 0.0
4.491017964071854 0.0 0.0
4.431137724550896 0.0 0.0
4.371257485029938 0.0 0.0
4.31137724550898 0.0 0.0
4.251497005988022 0.0 0.0
4.191616766467064 0.0 0.0
4.131736526946106 0.0 0.0
4.071856287425147 0.0 0.0
4.01197604790419 0.0 0.0
3.952095808383231 0.0 0.0
3.892215568862274 0.0 0.0
3.832335329341316 0.0 0.0
3.772455089820358 0.0 0.0
3.712574850299399 0.0 0.0
3.652694610778441 0.0 0.0
3.592814371257483 0.0 0.0
3.532934131736526 0.0 0.0
3.473053892215567 0.0 0.0
3.41317365269461 0.0 0.0
3.353293413173652 0.0 0.0
3.293413173652693 0.0 0.0
3.233532934131736 0.0 0.0
3.173652694610777 0.0 0.0
3.113772455089819 0.0 0.0
3.053892215568861 0.0 0.0
2.994011976047903 0.0 0.0
2.934131736526945 0.0 0.0
2.874251497005988 0.0 0.0
2.814371257485028 0.0 0.0
2.754491017964071 0.0 0.0
2.694610778443113 0.0 0.0
2.634730538922155 0.0 0.0
2.574850299401197 0.0 0.0
2.514970059880238 0.0 0.0
2.455089820359281 0.0 0.0
2.395209580838323 0.0 0.0
2.335329341317365 0.0 0.0
2.275449101796406 0.0 0.0
2.215568862275448 0.0 0.0
2.15568862275449 0.0 0.0
2.095808383233532 0.0 0.0
2.035928143712574 0.0 0.0
1.976047904191615 0.0 0.0
1.916167664670658 0.0 0.0
1.8562874251497 0.0 0.0
1.796407185628741 0.0 0.0
1.736526946107784 0.0 0.0
1.676646706586826 0.0 0.0
1.616766467065867 0.0 0.0
1.55688622754491 0.0 0.0
1.49700598802395 0.0 0.0
1.437125748502995 0.0 0.0
1.377245508982035 0.0 0.0
1.317365269461078 0.0 0.0
1.257485029940119 0.0 0.0
1.19760479041916 0.0 0.0
1.137724550898204 0.0 0.0
1.077844311377245 0.0 0.0
1.017964071856287 0.0 0.0
0.958083832335328 0.0 0.0
0.8982035928143723 0.0 0.0
0.8383233532934131 0.0 0.0
0.7784431137724539 0.0 0.0
0.7185628742514965 0.0 0.0
0.658682634730539 0.0 0.0
0.5988023952095816 0.0 0.0
0.5389221556886223 0.0 0.0
0.4790419161676631 0.0 0.0
0.4191616766467074 0.0 0.0
0.3592814371257482 0.0 0.0
0.2994011976047908 0.0 0.0
0.2395209580838316 0.0 0.0
0.1796407185628741 0.0 0.0
0.1197604790419167 0.0 0.0
0.05988023952095922 0.0 0.0
0.0 0.0588235294116454 0.0
0.0 0.1176470588233168 0.0
0.0 0.1764705882349203 0.0
0.0 0.2352941176465135 0.0
0.0 0.2941176470581066 0.0
0.0 0.3529411764696997 0.0
0.0 0.4117647058812929 0.0
0.0 0.4705882352928861 0.0
0.0 0.5294117647046425 0.0
0.0 0.5882352941165623 0.0
0.0 0.6470588235284821 0.0
0.0 0.7058823529404019 0.0
0.0 0.7647058823523216 0.0
0.0 0.8235294117642414 0.0
0.0 0.8823529411761613 0.0
0.0 0.941176470588081 0.0
9.496671432578891 0.5021202775764965 0.0
0.503328567417594 0.502120277573701 0.0
8.960949321310713 0.5028360638807294 0.0
1.039050678683441 0.5028360638815293 0.0
8.421726050444477 0.5013914029598456 0.0
1.578273949553219 0.5013914029599852 0.0
2.110012838156869 0.501717680037117 0.0
[...]
POINT_DATA 11134
VECTORS vector double
1.0 0.0 0.0
0.0 0.0 0.0
0.0 0.0 0.0
0.0 0.0 0.0
1.04527806677 -3.34389445622e-06 0.0
1.0 0.0 0.0
0.0 0.0 0.0
0.0 0.0 0.0
0.0 0.0 0.0
0.0 0.0 0.0
0.0 0.0 0.0
0.0 0.0 0.0
0.0 0.0 0.0
0.0 0.0 0.0
0.0 0.0 0.0
0.0 0.0 0.0
0.0 0.0 0.0
0.0 0.0 0.0
0.0 0.0 0.0
0.0 0.0 0.0
0.0 0.0 0.0
0.0 0.0 0.0
0.0 0.0 0.0
0.0 0.0 0.0
0.0 0.0 0.0
0.0 0.0 0.0
0.0 0.0 0.0
0.0 0.0 0.0
0.0 0.0 0.0
0.0 0.0 0.0
0.0 0.0 0.0
0.0 0.0 0.0
0.0 0.0 0.0
0.0 0.0 0.0
0.0 0.0 0.0
0.0 0.0 0.0
0.0 0.0 0.0
0.0 0.0 0.0
0.0 0.0 0.0
0.0 0.0 0.0
0.0 0.0 0.0
0.0 0.0 0.0
0.0 0.0 0.0
0.0 0.0 0.0
0.0 0.0 0.0
0.0 0.0 0.0
0.0 0.0 0.0
0.0 0.0 0.0
0.0 0.0 0.0
0.0 0.0 0.0
0.0 0.0 0.0
0.0 0.0 0.0
0.0 0.0 0.0
0.0 0.0 0.0
0.0 0.0 0.0
0.0 0.0 0.0
0.0 0.0 0.0
0.0 0.0 0.0
0.0 0.0 0.0
0.0 0.0 0.0
0.0 0.0 0.0
0.0 0.0 0.0
0.0 0.0 0.0
0.0 0.0 0.0
0.0 0.0 0.0
0.0 0.0 0.0
0.0 0.0 0.0
0.0 0.0 0.0
0.0 0.0 0.0
0.0 0.0 0.0
0.0 0.0 0.0
0.0 0.0 0.0
0.0 0.0 0.0
0.0 0.0 0.0
0.0 0.0 0.0
0.0 0.0 0.0
0.0 0.0 0.0
0.0 0.0 0.0
0.0 0.0 0.0
0.0 0.0 0.0
0.0 0.0 0.0
0.0 0.0 0.0
0.0 0.0 0.0
0.0 0.0 0.0
0.0 0.0 0.0
0.0 0.0 0.0
0.0 0.0 0.0
0.0 0.0 0.0
0.0 0.0 0.0
0.0 0.0 0.0
0.0 0.0 0.0
0.0 0.0 0.0
0.0 0.0 0.0
0.0 0.0 0.0
0.0 0.0 0.0
0.0 0.0 0.0
0.0 0.0 0.0
0.0 0.0 0.0
0.0 0.0 0.0
0.0 0.0 0.0
0.0 0.0 0.0
0.0 0.0 0.0
0.0 0.0 0.0
0.0 0.0 0.0
0.0 0.0 0.0
0.0 0.0 0.0
0.0 0.0 0.0
0.0 0.0 0.0
0.0 0.0 0.0
0.0 0.0 0.0
0.0 0.0 0.0
0.0 0.0 0.0
0.0 0.0 0.0
0.0 0.0 0.0
0.0 0.0 0.0
0.0 0.0 0.0
0.0 0.0 0.0
0.0 0.0 0.0
0.0 0.0 0.0
0.0 0.0 0.0
0.0 0.0 0.0
0.0 0.0 0.0
0.0 0.0 0.0
0.0 0.0 0.0
0.0 0.0 0.0
0.0 0.0 0.0
0.0 0.0 0.0
0.0 0.0 0.0
0.0 0.0 0.0
0.0 0.0 0.0
0.0 0.0 0.0
0.0 0.0 0.0
0.0 0.0 0.0
0.0 0.0 0.0
0.0 0.0 0.0
0.0 0.0 0.0
0.0 0.0 0.0
0.0 0.0 0.0
0.0 0.0 0.0
0.0 0.0 0.0
0.0 0.0 0.0
0.0 0.0 0.0
0.0 0.0 0.0
0.0 0.0 0.0
0.0 0.0 0.0
0.0 0.0 0.0
0.0 0.0 0.0
0.0 0.0 0.0
0.0 0.0 0.0
0.0 0.0 0.0
0.0 0.0 0.0
0.0 0.0 0.0
0.0 0.0 0.0
0.0 0.0 0.0
0.0 0.0 0.0
0.0 0.0 0.0
0.0 0.0 0.0
0.0 0.0 0.0
0.0 0.0 0.0
0.0 0.0 0.0
0.0 0.0 0.0
0.0 0.0 0.0
0.0 0.0 0.0
0.0 0.0 0.0
0.0 0.0 0.0
0.0 0.0 0.0
0.0 0.0 0.0
0.0 0.0 0.0
0.0 0.0 0.0
0.0 0.0 0.0
0.0 0.0 0.0
0.708721089437 0.102179124567 0.0
0.997090438177 0.0231123303137 0.0
1.04546776267 0.00344951053403 0.0
1.0471094123 0.000272441670782 0.0
1.04723629563 0.000136915830078 0.0
1.04639147819 -1.90224609947e-05 0.0
1.04710200614 2.85796047104e-05 0.0
1.04708853449 -9.01790803999e-05 0.0
1.04714573427 -6.97440459372e-05 0.0
1.04686930992 -1.87982401113e-06 0.0
1.04686496047 4.54426758542e-05 0.0
1.04714504532 -1.87548815865e-05 0.0
1.04707629116 4.44533276796e-05 0.0
1.0467089296 0.000130967850018 0.0
1.04705939933 0.000171602487854 0.0
1.04616687956 -5.54624328733e-05 0.0
1.04572742692 3.88904146445e-05 0.0
1.04591631681 3.93628747489e-05 0.0
1.04607109467 4.2992707849e-05 0.0
1.04611684373 -2.61050569948e-05 0.0
1.04593190595 -9.1374053497e-05 0.0
1.04565834538 -3.37761099086e-05 0.0
1.0461742655 0.000115476833852 0.0
1.04591427592 -6.87842135795e-05 0.0
1.04615138151 3.65245042685e-05 0.0
1.04593443942 -9.66813950068e-05 0.0
1.04571477458 2.25985938499e-05 0.0
1.04631071609 0.000159444501317 0.0
1.04640989339 -4.63012644439e-06 0.0
1.04640219547 -1.63216424466e-07 0.0
1.04641724595 7.62488894837e-06 0.0
1.04652207035 4.18827997416e-05 0.0
1.04654993355 -2.72211347221e-05 0.0
1.04661754794 -6.60016286444e-06 0.0
1.04655075512 3.75413445298e-05 0.0
1.04669678814 5.24388047105e-05 0.0
1.04677816735 -1.44345383654e-05 0.0
1.04675493702 -3.42985850322e-06 0.0
1.04668566173 -3.9867524448e-05 0.0
1.04674020983 -1.03466945567e-06 0.0
1.0466856104 2.18433467014e-05 0.0
1.04676855362 1.83961498487e-05 0.0
1.04690070174 3.19571740616e-05 0.0
1.04683481981 -4.82336180096e-05 0.0
1.04677679245 5.46284462482e-06 0.0
1.04677859831 -1.28492732364e-05 0.0
1.04679022509 2.18437806702e-05 0.0
1.0469064063 -2.00963971464e-05 0.0
1.04672639483 -1.3332788807e-05 0.0
1.0467367341 -2.85629659709e-05 0.0
1.04619717597 5.07356365876e-06 0.0
1.04652751577 -3.28318525254e-05 0.0
1.04635383076 -3.40399024858e-05 0.0
1.0464175336 7.26868626458e-05 0.0
1.04661552643 3.01480085593e-06 0.0
1.04661696818 -1.25973652893e-05 0.0
1.0466884851 -2.76684576619e-06 0.0
1.0465639427 -3.42049117629e-06 0.0
1.04666862782 1.62404401246e-05 0.0
1.04623454465 -3.80142373621e-06 0.0
1.04670926409 -1.86030321185e-05 0.0
1.0465495758 -2.5746591256e-06 0.0
1.04658915186 2.3948215627e-05 0.0
1.04669616491 1.12563886777e-05 0.0
1.04675170972 3.33030597216e-06 0.0
1.04690405935 3.00953272066e-05 0.0
1.04684185364 1.50705006376e-05 0.0
1.04693343527 -3.27463982023e-05 0.0
1.04643752867 -1.55319625768e-07 0.0
1.04690224339 1.37461466118e-05 0.0
1.04675046583 -2.95584886045e-05 0.0
1.04675370996 3.11341940618e-05 0.0
1.04685721306 5.88116418229e-06 0.0
1.04688593667 -7.18479194673e-06 0.0
1.04703844223 3.38724393305e-05 0.0
1.04696263281 3.82480092357e-06 0.0
1.04702945526 -4.56432065745e-05 0.0
1.0465087802 -7.58101237307e-06 0.0
1.04706315267 4.27587700445e-05 0.0
1.04690468404 -4.10880826008e-05 0.0
1.04679473407 -1.95971985611e-05 0.0
1.0467028567 -1.32990492095e-05 0.0
1.04662762557 -1.53987874105e-05 0.0
1.0464770034 -7.94845639875e-05 0.0
1.04648298439 1.87342249278e-05 0.0
1.04639738241 1.91681178364e-05 0.0
1.0463352456 -1.21905421176e-05 0.0
1.04618912198 -0.000145485788624 0.0
1.04579277306 -1.00829660368e-05 0.0
1.04625907369 0.0001157976103 0.0
1.04626022616 -3.39391154191e-05 0.0
1.04613406693 -3.05533961074e-05 0.0
1.04608598509 1.47514237242e-05 0.0
1.04637326277 9.67637377198e-05 0.0
1.04653900203 -1.97471590482e-05 0.0
1.04629956103 -4.90929839864e-05 0.0
1.04628482218 6.88861911843e-05 0.0
1.04646033052 -1.20537199151e-05 0.0
1.04651416672 2.85943348813e-05 0.0
1.0464910201 -0.000187705311951 0.0
1.04579756814 5.80865706647e-06 0.0
1.04627378434 0.000176427274981 0.0
1.04647569944 1.47264106442e-05 0.0
1.04653146025 -3.18261912505e-05 0.0
1.04660161403 -7.87971078993e-06 0.0
1.04655055263 4.86556699268e-05 0.0
1.04672509426 4.10383507517e-05 0.0
1.04679069891 -1.60391536476e-05 0.0
1.04670535869 -3.44037002368e-05 0.0
1.04683735536 3.79742534217e-05 0.0
1.04700054709 3.59043566715e-05 0.0
1.04655420896 -7.39491852907e-06 0.0
1.04705276603 1.75574531827e-05 0.0
1.04695995775 -3.69030255541e-06 0.0
1.0470692331 -1.261875539e-05 0.0
1.04693143948 3.6676275505e-06 0.0
1.04687508128 -2.51507914165e-05 0.0
1.04678582056 -8.90865939123e-06 0.0
1.04686348153 5.13795103824e-05 0.0
1.04708775209 2.50664359564e-06 0.0
1.04661330583 1.05363085355e-06 0.0
1.0471228348 3.16123482746e-05 0.0
1.04701620982 -2.59064921733e-05 0.0
1.04704136562 -3.87652169192e-05 0.0
1.04690809963 2.1962598668e-05 0.0
1.04689442727 -1.53221663992e-05 0.0
1.04679279645 -2.16749063637e-05 0.0
1.04679438595 2.63092215221e-05 0.0
1.04695443942 -7.21677137203e-06 0.0
1.04650597094 1.21287598575e-06 0.0
1.04697044205 2.09980218917e-05 0.0
1.04684630275 -2.24967500793e-05 0.0
1.04688525785 -2.4165103637e-05 0.0
1.04674336003 -1.62600161333e-06 0.0
1.0466971418 -1.59953658157e-05 0.0
1.04658219945 -2.29268935317e-05 0.0
1.04653636902 8.50964913021e-08 0.0
1.04668383926 1.60300279744e-05 0.0
1.04620189775 3.81313824205e-06 0.0
1.04664148994 -1.30916125317e-05 0.0
1.04655640608 9.44030090797e-06 0.0
1.04672644353 1.68671730357e-05 0.0
1.04668972016 1.58694585224e-05 0.0
1.04669717681 -1.58889411329e-06 0.0
1.0465177972 -6.61271132102e-05 0.0
1.04647190041 3.83909948906e-05 0.0
1.04663239968 2.43647693651e-05 0.0
1.0462736843 -3.44080424127e-06 0.0
1.04678530645 1.43679093971e-05 0.0
1.04673503221 7.38109591552e-06 0.0
1.04686728584 4.02262286749e-06 0.0
1.04668910826 -3.99891929797e-05 0.0
1.04659509304 -7.62876423771e-06 0.0
1.04643488027 -3.96873601266e-05 0.0
1.04636601822 1.33104463278e-05 0.0
1.04630518134 -5.67897661846e-05 0.0
1.04600474896 -4.66527515344e-05 0.0
1.04578578395 -6.03703421986e-05 0.0
1.04557470301 -7.44760502669e-05 0.0
1.04524209123 -4.66551186791e-06 0.0
1.04501696562 -8.86729454811e-05 0.0
1.04474776556 -8.15193161936e-05 0.0
1.0442169816 -0.00013552970214 0.0
1.04368243663 -0.000147822534114 0.0
1.04308090059 -0.000190818282396 0.0
1.04220978729 -0.000111991164571 0.0
1.04134272436 -0.000259987703421 0.0
1.04038607949 -0.000237846791673 0.0
1.03898165647 -0.000213492065198 0.0
1.0378713925 -0.000336890932988 0.0
1.03582753111 -0.00080707253218 0.0
1.03323575632 -0.000304536188575 0.0
1.03157527644 -0.00017224796168 0.0
1.02951084498 -0.00103488053467 0.0
1.0260735316 -0.000273528160912 0.0
1.0232312658 -0.00110738221282 0.0
1.01974754058 -0.000378613652335 0.0
1.01820639635 -0.000202499357362 0.0
1.01890619071 0.000794130912391 0.0
1.01946931025 0.000261138114002 0.0
1.01622620218 -0.00189530812162 0.0
1.00691576279 -0.00232657646245 0.0
1.0 0.0 0.0
1.0 0.0 0.0
1.0 0.0 0.0
1.0 0.0 0.0
1.0 0.0 0.0
1.0 0.0 0.0
1.0 0.0 0.0
1.0 0.0 0.0
1.0 0.0 0.0
1.0 0.0 0.0
1.0 0.0 0.0
1.0 0.0 0.0
1.0 0.0 0.0
1.0 0.0 0.0
1.0 0.0 0.0
1.0 0.0 0.0
1.04699065087 -7.2376810333e-06 0.0
1.04369271831 -0.0230100451079 0.0
1.04714757156 0.000352601783427 0.0
1.04700905467 -0.00440211106671 0.0
1.04782569896 -2.46541388495e-05 0.0
1.04776881608 -0.00087847487837 0.0
1.04704343749 0.000448029844149 0.0
1.04644721633 -0.000576924067952 0.0
1.04655145666 -0.000444189288963 0.0
1.04686915118 0.00058940152622 0.0
1.04723276233 -0.000188732999846 0.0
1.04716529645 0.000185234890339 0.0
1.04728685734 -1.08170242353e-05 0.0
1.04739789238 2.26512277451e-05 0.0
1.04746206749 0.000138585343752 0.0
1.04703804617 -0.000304707906577 0.0
1.04742448505 0.000215759465785 0.0
1.04688157232 0.000333878335468 0.0
1.04652187282 0.000725279795417 0.0
1.05157549479 -0.00915686006268 0.0
1.04690489002 5.92208068964e-05 0.0
1.04136424839 -0.00785148998841 0.0
1.04660772565 0.000602928526312 0.0
1.04752868877 -0.00197512999217 0.0
1.04737313821 0.000192046554504 0.0
1.04720443207 -0.00142119339029 0.0
1.04716326706 0.000154280176459 0.0
1.04512356081 9.93548093778e-05 0.0
1.04465009486 0.000704099045239 0.0
1.04736721434 -0.00019870749474 0.0
1.04744364086 -5.70125118044e-06 0.0
1.04697747223 -0.000916068884667 0.0
1.04653324501 -0.000154581070404 0.0
1.04696297061 -0.000342939977107 0.0
1.0463718571 -0.000214432693606 0.0
1.0469266368 -0.000373946949405 0.0
1.04719204317 -0.0015478868084 0.0
1.04700276026 0.000700108569176 0.0
1.04722001653 3.65933901679e-05 0.0
1.04727340234 -2.85112768634e-05 0.0
1.04703683762 0.000122842636619 0.0
1.04701119427 -0.00021816132853 0.0
1.0466267977 1.89206861864e-05 0.0
1.0465101244 0.000119445229564 0.0
1.04663677352 -0.000341079030736 0.0
1.04664247102 -0.000103831280306 0.0
1.04604055901 -0.00168054499167 0.0
1.0469986037 0.000233024487188 0.0
1.04656104251 -8.4270414361e-06 0.0
1.04716415288 0.00018277968247 0.0
1.04593958305 -0.000302493597408 0.0
1.04721826074 -8.90120766796e-05 0.0
1.06175503964 -0.0634814863293 0.0
1.04736762992 -0.000954921425963 0.0
1.04680615629 -5.07656395185e-05 0.0
1.01837763644 -0.0222503326545 0.0
1.04950010267 -0.000168962856963 0.0
1.05087233373 -0.00267730041414 0.0
1.05091331165 0.0015279319545 0.0
1.05148829988 -0.00143891071725 0.0
1.04757626282 2.77080380312e-05 0.0
1.04757240957 2.05651451946e-05 0.0
1.04746327781 3.50327683079e-05 0.0
1.0472930237 0.000167367059999 0.0
1.04941264242 0.00156255404549 0.0
1.0467745692 -0.00142704045495 0.0
1.04718320439 -0.000398107452692 0.0
1.04991721271 0.00138955495525 0.0
1.0484754138 0.00100470543033 0.0
1.0494229908 0.000638092134287 0.0
1.04833056089 0.00113985023571 0.0
1.04970084328 0.00138736152054 0.0
1.04881355924 0.000867187178126 0.0
1.04704466393 -0.00018500903856 0.0
1.04742453148 -0.00018160902736 0.0
1.04740814257 0.00016491678214 0.0
1.04701360543 -0.000256184146486 0.0
1.04706719984 0.000312137690209 0.0
1.04618387446 -0.000148952736515 0.0
1.04757178031 -0.000135471130573 0.0
1.0472181529 7.24088058759e-05 0.0
1.0470148064 -0.000118567719451 0.0
1.0472594904 0.000200595107303 0.0
1.04402834653 -0.00340431214722 0.0
1.04739453055 -0.000143622017084 0.0
1.04696172578 -0.000435041032632 0.0
1.04512775847 -0.000111913942657 0.0
1.06453122096 -0.0180796590338 0.0
1.04693096878 4.27692561328e-05 0.0
1.03267572376 -0.0111246324547 0.0
1.04785607125 0.00168640934904 0.0
1.04710144043 5.38425161653e-06 0.0
1.02186899986 -0.0467352571395 0.0
1.04713581046 -0.00020754753588 0.0
1.04657765069 0.000150371184879 0.0
1.04696838464 0.000150604633959 0.0
1.04709929742 0.000248575405677 0.0
1.04752275167 -0.00016236892884 0.0
1.04701389842 -0.000576802005738 0.0
1.04746911385 -0.000147751992493 0.0
1.04737539489 0.000220578255555 0.0
1.04737737926 0.000383075355127 0.0
1.04734588417 -0.0018041549416 0.0
1.04766655073 -0.000627379975106 0.0
1.04768756299 -7.64050254928e-05 0.0
1.04737077589 -0.00033641335243 0.0
1.04724548558 0.000178095303295 0.0
1.04667202271 -5.65459477451e-05 0.0
1.04659704868 0.000515436396928 0.0
1.04660978756 -0.00796586442108 0.0
1.04698456469 0.000363161119683 0.0
1.04729907956 0.000115930209464 0.0
1.04526341086 -0.00141671338419 0.0
1.04739985844 -5.05270878162e-06 0.0
1.04718654113 1.9532064633e-05 0.0
1.04716429501 3.35027606109e-05 0.0
1.04690650245 4.27288904886e-06 0.0
1.0469677896 -3.94682609144e-05 0.0
1.04655195741 2.34976194384e-05 0.0
1.04658471165 -3.84717844697e-06 0.0
1.04668048167 -0.000227922347276 0.0
1.04671550334 5.28749747768e-05 0.0
1.04593026159 -0.000657825968443 0.0
1.04690082681 -1.01323625412e-05 0.0
1.04541110547 0.00259800062636 0.0
1.05110050724 -0.00629005071472 0.0
1.05282232061 -0.00604724772654 0.0
1.05109658706 0.00528440110483 0.0
1.04760989396 0.00276864027943 0.0
1.04783397176 -0.00617022220953 0.0
1.05034306739 0.000181356385804 0.0
1.04628848482 -0.00415585610338 0.0
1.04854873298 -0.004645764279 0.0
1.04812245016 0.00675117578329 0.0
1.04319304344 0.0050434672348 0.0
1.04249666722 -0.0040444247158 0.0
1.05155016242 -0.00402150427393 0.0
1.04775799399 0.00284950770202 0.0
1.04858694784 2.62267023037e-05 0.0
1.05024239792 -0.0045613882264 0.0
1.05128702456 -0.00376106910862 0.0
1.04737473522 0.00306669930241 0.0
1.05019423054 -0.00362669216608 0.0
1.04884691295 -0.000836434831077 0.0
1.04806322169 0.0011802655387 0.0
1.04992446245 -0.00453882355465 0.0
1.0512462532 -0.00406364160638 0.0
1.04793166197 0.00112056768769 0.0
1.05277029413 -0.0036233609146 0.0
1.04974064277 0.00148209232107 0.0
1.04684753076 -6.51983920034e-06 0.0
1.04629863208 0.000218171272741 0.0
1.04676660072 -0.0136969664001 0.0
1.04700947099 5.81494604156e-05 0.0
1.04621022315 -0.000146059898117 0.0
1.04660319776 0.000461557587372 0.0
1.04735729335 0.000106558751564 0.0
1.04711453941 -0.000366264912837 0.0
1.04736496016 -2.31369390013e-05 0.0
1.04736556687 -1.07019123165e-05 0.0
1.04754384663 0.000200255561819 0.0
1.04712168727 -0.000889537295539 0.0
1.04776934223 -0.000411123575312 0.0
1.04740004412 -3.4656463637e-05 0.0
1.04755113145 0.000323493404375 0.0
1.04754304316 -0.00248580573679 0.0
1.04738147581 0.000124103836713 0.0
1.049424596 -0.00306402651894 0.0
1.04950600617 0.00107251905081 0.0
1.04701345785 0.000169294241104 0.0
1.04096170126 -0.00355777827462 0.0
1.09806425834 -0.12153783793 0.0
1.05032076825 -0.00102664473052 0.0
1.04759079014 0.000265255997104 0.0
1.05839484457 -0.00499893442534 0.0
1.04740291948 -0.000140496791953 0.0
1.047163505 -0.000147851700349 0.0
1.04665849906 4.86380114397e-06 0.0
1.0467674082 1.38706147839e-05 0.0
1.04704515604 1.02019646971e-05 0.0
1.04701616928 -4.87158813922e-05 0.0
1.04677160202 3.39417888356e-05 0.0
1.00533192513 -0.0128814481573 0.0
1.04719606893 -6.08664748263e-05 0.0
1.04726288972 4.35144147255e-05 0.0
1.04750207593 -0.0001425717835 0.0
1.04733542646 7.51464678021e-05 0.0
1.04719821658 -0.000142810074272 0.0
1.04743158415 0.000139934703872 0.0
1.04737898875 9.03045557068e-05 0.0
1.04711943208 0.000131770218877 0.0
1.04572720953 -0.00275681392832 0.0
1.04841039918 -0.0023391889521 0.0
1.04755877621 0.00122130167336 0.0
1.04676482478 -0.00043400315943 0.0
1.04697789723 0.000174390718911 0.0
1.04721233649 6.52272904438e-05 0.0
1.0370622449 -0.00539540202792 0.0
1.04729046065 3.17109011903e-05 0.0
1.04679423264 -0.00105694338863 0.0
1.04656308793 0.000255333500349 0.0
1.04649439575 -8.46834679106e-05 0.0
1.04699778118 0.00011145966002 0.0
1.04699927142 -0.000168329610509 0.0
1.047189289 8.69717790134e-05 0.0
1.04712138884 -4.5790161188e-05 0.0
1.04718950484 5.04969898621e-06 0.0
1.0461345678 0.00296677060742 0.0
1.04504933275 -0.00243397725963 0.0
1.04731765507 0.000184755494356 0.0
1.04685918506 -2.05827487288e-05 0.0
1.04725652987 -0.00194208603295 0.0
1.09196787089 -0.0284204012422 0.0
1.04682021781 -2.98068254552e-05 0.0
1.02293221967 -0.00947092365136 0.0
1.0468542347 -0.000146031026753 0.0
1.04708037197 0.000100401150922 0.0
1.0470044717 0.000109171501155 0.0
1.04719775483 0.00019855823572 0.0
1.04724382841 0.000177414415144 0.0
1.04719842783 3.80286434214e-05 0.0
1.04717720737 -0.000241235996594 0.0
1.04713296388 -4.62105135955e-05 0.0
1.0470206609 4.15527978585e-06 0.0
1.04720985407 0.000785390311456 0.0
1.04926755523 -0.00610785027289 0.0
1.04679731284 -0.00021439970484 0.0
1.04688756956 0.000203227847027 0.0
1.04671441284 0.000296548553557 0.0
1.04642476058 -0.000278483083222 0.0
1.04768356881 -0.000353246253634 0.0
1.04758845742 -0.000340603044875 0.0
1.04712969484 0.000808621932471 0.0
1.04769924399 0.000965429954084 0.0
1.04811059027 -0.00205165637098 0.0
1.04834053467 -0.000759868248448 0.0
1.04824325894 7.11674383751e-05 0.0
1.04764450207 -0.000591765550245 0.0
1.04711429347 0.000770312259667 0.0
1.04630567809 -0.000762357008136 0.0
1.04662453653 0.00173174689673 0.0
1.04653120984 -0.000249769715307 0.0
1.04707601379 0.000152192580402 0.0
1.03967562244 -0.0136326191776 0.0
1.04690961587 0.000141201726104 0.0
1.04658838979 0.000409675616137 0.0
1.0471545437 0.000499917317209 0.0
1.04674135571 -0.000531604857607 0.0
1.04321716454 -0.0381925666768 0.0
1.02068973962 -0.0630971976298 0.0
1.04670392782 -0.000221586390338 0.0
1.00638955482 -0.0243929505752 0.0
1.04680500245 5.97415317352e-05 0.0
1.04685646731 -9.79404249736e-05 0.0
1.03053564449 -0.0200239666201 0.0
1.04713860451 0.000116926724683 0.0
1.04696385609 -0.000200077788059 0.0
1.04706700048 0.000236588973049 0.0
1.04676257236 -0.000827973428563 0.0
1.04743675591 -7.4993742782e-05 0.0
1.04731034019 -0.000620385446634 0.0
1.04505343335 -0.00525424752801 0.0
1.04708156893 0.000427703348879 0.0
1.04558559841 -0.00100167787771 0.0
1.04653981756 0.00170362784309 0.0
1.04790635648 -0.000130481686927 0.0
1.04699491381 -0.000599685328574 0.0
1.04776639044 -0.000384421480843 0.0
1.04735166256 0.000171584695305 0.0
1.04862452963 -0.000459075885772 0.0
1.04731476351 0.000160542840852 0.0
1.04775741852 0.000574465491283 0.0
1.04795029871 0.000142431405237 0.0
1.04694397829 -0.00121281427096 0.0
1.04844414077 -0.00236837804768 0.0
1.04710341175 -0.000448752049019 0.0
1.04744585441 8.68194905302e-05 0.0
1.04704458755 -7.93923401901e-05 0.0
1.04993621845 -0.0187839660138 0.0
1.04559487679 -1.49067719004e-05 0.0
1.0456212651 -0.000790257169709 0.0
1.04725069175 1.96435474634e-05 0.0
1.04621061893 -0.000727727311416 0.0
1.05930494229 -0.0331044522981 0.0
1.04369172817 -0.00142053248004 0.0
1.04711829572 7.32985728728e-05 0.0
1.04648241281 -2.48265623031e-05 0.0
1.0463327383 -7.81395316833e-05 0.0
1.04628445702 4.86295954091e-05 0.0
1.04612812206 6.92146327e-05 0.0
1.04617620218 -8.87924061218e-05 0.0
1.04585750862 0.000176144315739 0.0
1.04588503286 -0.000127865935574 0.0
1.04637749065 4.94303671604e-05 0.0
1.04630530687 -9.48068040679e-05 0.0
1.04659526672 -0.000361823300393 0.0
1.04729885708 4.52338529813e-06 0.0
1.03642946772 0.00724789269905 0.0
1.0413550842 -0.00629465906849 0.0
1.0159884218 0.00466852916314 0.0
1.01926030076 -0.00164946569317 0.0
1.01898636415 -0.00403393341164 0.0
1.01658516263 0.00873212057703 0.0
1.03400932505 0.00969280071402 0.0
1.03375819805 -0.00634270983644 0.0
1.03974401206 -0.00260287356161 0.0
1.03809229348 0.00858993872739 0.0
1.0394847037 -0.000551383488967 0.0