# vtk DataFile Version 2.0
2D Simulation Python
ASCII
DATASET UNSTRUCTURED_GRID
FIELD FieldData 1
NODES 1 2 int
11134 7299

POINTS 11134 double
0.0 1.0 0.0
1.725 1.0 0.0
8.275 1.0 0.0
10.0 1.0 0.0
10.0 0.0 0.0
0.0 0.0 0.0
0.05948275862057954 1.0 0.0
0.1189655172411507 1.0 0.0
0.1784482758617532 1.0 0.0
0.2379310344823185 1.0 0.0
0.2974137931028384 1.0 0.0
0.3568965517233564 1.0 0.0
0.4163793103438745 1.0 0.0
0.475862068964385 1.0 0.0
0.535344827584889 1.0 0.0
0.5948275862053855 1.0 0.0
0.654310344825882 1.0 0.0
0.7137931034463786 1.0 0.0
0.7732758620668752 1.0 0.0
0.8327586206874149 1.0 0.0
0.8922413793081027 1.0 0.0
0.9517241379289384 1.0 0.0
1.011206896549752 1.0 0.0
1.070689655170612 1.0 0.0
1.130172413791474 1.0 0.0
1.189655172412335 1.0 0.0
1.249137931033183 1.0 0.0
1.308620689654105 1.0 0.0
1.368103448274985 1.0 0.0
1.427586206895818 1.0 0.0
1.487068965516628 1.0 0.0
1.546551724137449 1.0 0.0
1.606034482758285 1.0 0.0
1.665517241379139 1.0 0.0
1.784545454545345 1.0 0.0
1.844090909090676 1.0 0.0
1.903636363635991 1.0 0.0
1.963181818181336 1.0 0.0
2.022727272726716 1.0 0.0
2.082272727272112 1.0 0.0
2.141818181817408 1.0 0.0
2.201363636362702 1.0 0.0
2.260909090908037 1.0 0.0
2.320454545453433 1.0 0.0
2.379999999998759 1.0 0.0
2.439545454544053 1.0 0.0
2.499090909089358 1.0 0.0
2.558636363634754 1.0 0.0
2.618181818180109 1.0 0.0
2.677727272725404 1.0 0.0
2.737272727270631 1.0 0.0
2.796818181815906 1.0 0.0
2.856363636361191 1.0 0.0
2.915909090906408 1.0 0.0
2.975454545451703 1.0 0.0
3.034999999997049 1.0 0.0
3.094545454542377 1.0 0.0
3.154090909087591 1.0 0.0
3.21363636363288 1.0 0.0
3.273181818178196 1.0 0.0
3.332727272723555 1.0 0.0
3.392272727268849 1.0 0.0
3.451818181814208 1.0 0.0
3.511363636359524 1.0 0.0
3.570909090904812 1.0 0.0
3.630454545450026 1.0 0.0
3.689999999995355 1.0 0.0
3.749545454540702 1.0 0.0
3.809090909085996 1.0 0.0
3.868636363631291 1.0 0.0
3.928181818176585 1.0 0.0
3.987727272721861 1.0 0.0
4.047272727267021 1.0 0.0
4.106818181812208 1.0 0.0
4.166363636357625 1.0 0.0
4.225909090903122 1.0 0.0
4.285454545448432 1.0 0.0
4.34499999999356 1.0 0.0
4.404545454538917 1.0 0.0
4.464090909084414 1.0 0.0
4.523636363629791 1.0 0.0
4.583181818174936 1.0 0.0
4.642727272720208 1.0 0.0
4.702272727265705 1.0 0.0
4.761818181811142 1.0 0.0
4.821363636356348 1.0 0.0
4.880909090901557 1.0 0.0
4.940454545446997 1.0 0.0
4.999999999992493 1.0 0.0
5.059545454538018 1.0 0.0
5.119090909083717 1.0 0.0
5.17863636362933 1.0 0.0
5.238181818174827 1.0 0.0
5.297727272720321 1.0 0.0
5.357272727265989 1.0 0.0
5.416818181811662 1.0 0.0
5.476363636357158 1.0 0.0
5.535909090902654 1.0 0.0
5.595454545448262 1.0 0.0
5.65499999999396 1.0 0.0
5.714545454539491 1.0 0.0
5.774090909085032 1.0 0.0
5.83363636363093 1.0 0.0
5.893181818176673 1.0 0.0
5.952727272722171 1.0 0.0
6.012272727267668 1.0 0.0
6.071818181813491 1.0 0.0
6.131363636359353 1.0 0.0
6.190909090904849 1.0 0.0
6.250454545450346 1.0 0.0
6.309999999996052 1.0 0.0
6.369545454541951 1.0 0.0
6.429090909087529 1.0 0.0
6.488636363633026 1.0 0.0
6.548181818178611 1.0 0.0
6.60772727272451 1.0 0.0
6.667272727270209 1.0 0.0
6.726818181815705 1.0 0.0
6.786363636361202 1.0 0.0
6.845909090907071 1.0 0.0
6.905454545452889 1.0 0.0
6.964999999998385 1.0 0.0
7.024545454543881 1.0 0.0
7.084090909089378 1.0 0.0
7.143636363634876 1.0 0.0
7.20318181818037 1.0 0.0
7.262727272725868 1.0 0.0
7.322272727271365 1.0 0.0
7.381818181816859 1.0 0.0
7.441363636362357 1.0 0.0
7.500909090907854 1.0 0.0
7.560454545453348 1.0 0.0
7.619999999998846 1.0 0.0
7.679545454544343 1.0 0.0
7.739090909089839 1.0 0.0
7.798636363635335 1.0 0.0
7.858181818180832 1.0 0.0
7.917727272726328 1.0 0.0
7.977272727271824 1.0 0.0
8.036818181817441 1.0 0.0
8.09636363636334 1.0 0.0
8.155909090909008 1.0 0.0
8.215454545454504 1.0 0.0
8.334482758620055 1.0 0.0
8.393965517240051 1.0 0.0
8.453448275859904 1.0 0.0
8.51293103448045 1.0 0.0
8.572413793100301 1.0 0.0
8.631896551720153 1.0 0.0
8.6913793103407 1.0 0.0
8.750862068961245 1.0 0.0
8.810344827581792 1.0 0.0
8.869827586202339 1.0 0.0
8.929310344822884 1.0 0.0
8.988793103443431 1.0 0.0
9.048275862063978 1.0 0.0
9.107758620684523 1.0 0.0
9.16724137930507 1.0 0.0
9.226724137925617 1.0 0.0
9.286206896546162 1.0 0.0
9.345689655167401 1.0 0.0
9.405172413788595 1.0 0.0
9.46465517240963 1.0 0.0
9.524137931030667 1.0 0.0
9.583620689651704 1.0 0.0
9.643103448272907 1.0 0.0
9.702586206894148 1.0 0.0
9.762068965515388 1.0 0.0
9.821551724136627 1.0 0.0
9.881034482757867 1.0 0.0
9.940517241378963 1.0 0.0
10.0 0.9411764705879904 0.0
10.0 0.882352941175982 0.0
10.0 0.8235294117645425 0.0
10.0 0.764705882353186 0.0
10.0 0.7058823529418295 0.0
10.0 0.6470588235304731 0.0
10.0 0.5882352941191167 0.0
10.0 0.5294117647077601 0.0
10.0 0.4705882352960771 0.0
10.0 0.4117647058840672 0.0
10.0 0.3529411764720576 0.0
10.0 0.2941176470600479 0.0
10.0 0.2352941176480381 0.0
10.0 0.1764705882360285 0.0
10.0 0.1176470588240187 0.0
10.0 0.05882352941200908 0.0
9.940119760479043 0.0 0.0
9.880239520958083 0.0 0.0
9.820359281437126 0.0 0.0
9.760479041916167 0.0 0.0
9.70059880239521 0.0 0.0
9.640718562874252 0.0 0.0
9.580838323353293 0.0 0.0
9.520958083832335 0.0 0.0
9.461077844311376 0.0 0.0
9.401197604790418 0.0 0.0
9.34131736526946 0.0 0.0
9.281437125748502 0.0 0.0
9.221556886227543 0.0 0.0
9.161676646706585 0.0 0.0
9.101796407185628 0.0 0.0
9.041916167664668 0.0 0.0
8.982035928143711 0.0 0.0
8.922155688622752 0.0 0.0
8.862275449101794 0.0 0.0
8.802395209580837 0.0 0.0
8.742514970059878 0.0 0.0
8.68263473053892 0.0 0.0
8.622754491017961 0.0 0.0
8.562874251497004 0.0 0.0
8.502994011976044 0.0 0.0
8.443113772455087 0.0 0.0
8.38323353293413 0.0 0.0
8.32335329341317 0.0 0.0
8.263473053892213 0.0 0.0
8.203592814371254 0.0 0.0
8.143712574850296 0.0 0.0
8.083832335329337 0.0 0.0
8.02395209580838 0.0 0.0
7.964071856287422 0.0 0.0
7.904191616766464 0.0 0.0
7.844311377245505 0.0 0.0
7.784431137724548 0.0 0.0
7.72455089820359 0.0 0.0
7.664670658682631 0.0 0.0
7.604790419161674 0.0 0.0
7.544910179640715 0.0 0.0
7.485029940119757 0.0 0.0
7.425149700598799 0.0 0.0
7.36526946107784 0.0 0.0
7.305389221556883 0.0 0.0
7.245508982035925 0.0 0.0
7.185628742514966 0.0 0.0
7.125748502994009 0.0 0.0
7.065868263473051 0.0 0.0
7.005988023952092 0.0 0.0
6.946107784431135 0.0 0.0
6.886227544910177 0.0 0.0
6.826347305389219 0.0 0.0
6.766467065868261 0.0 0.0
6.706586826347303 0.0 0.0
6.646706586826344 0.0 0.0
6.586826347305387 0.0 0.0
6.526946107784428 0.0 0.0
6.46706586826347 0.0 0.0
6.407185628742512 0.0 0.0
6.347305389221554 0.0 0.0
6.287425149700596 0.0 0.0
6.227544910179638 0.0 0.0
6.16766467065868 0.0 0.0
6.107784431137722 0.0 0.0
6.047904191616764 0.0 0.0
5.988023952095805 0.0 0.0
5.928143712574848 0.0 0.0
5.868263473053889 0.0 0.0
5.808383233532932 0.0 0.0
5.748502994011973 0.0 0.0
5.688622754491016 0.0 0.0
5.628742514970057 0.0 0.0
5.568862275449099 0.0 0.0
5.508982035928141 0.0 0.0
5.449101796407183 0.0 0.0
5.389221556886225 0.0 0.0
5.329341317365267 0.0 0.0
5.269461077844309 0.0 0.0
5.209580838323351 0.0 0.0
5.149700598802393 0.0 0.0
5.089820359281434 0.0 0.0
5.029940119760477 0.0 0.0
4.970059880239518 0.0 0.0
4.91017964071856 0.0 0.0
4.850299401197602 0.0 0.0
4.790419161676644 0.0 0.0
4.730538922155686 0.0 0.0
4.670658682634729 0.0 0.0
4.610778443113769 0.0 0.0
4.550898203592812 0.0 0.0
4.491017964071854 0.0 0.0
4.431137724550896 0.0 0.0
4.371257485029938 0.0 0.0
4.31137724550898 0.0 0.0
4.251497005988022 0.0 0.0
4.191616766467064 0.0 0.0
4.131736526946106 0.0 0.0
4.071856287425147 0.0 0.0
4.01197604790419 0.0 0.0
3.952095808383231 0.0 0.0
3.892215568862274 0.0 0.0
3.832335329341316 0.0 0.0
3.772455089820358 0.0 0.0
3.712574850299399 0.0 0.0
3.652694610778441 0.0 0.0
3.592814371257483 0.0 0.0
3.532934131736526 0.0 0.0
3.473053892215567 0.0 0.0
3.41317365269461 0.0 0.0
3.353293413173652 0.0 0.0
3.293413173652693 0.0 0.0
3.233532934131736 0.0 0.0
3.173652694610777 0.0 0.0
3.113772455089819 0.0 0.0
3.053892215568861 0.0 0.0
2.994011976047903 0.0 0.0
2.934131736526945 0.0 0.0
2.874251497005988 0.0 0.0
2.814371257485028 0.0 0.0
2.754491017964071 0.0 0.0
2.694610778443113 0.0 0.0
2.634730538922155 0.0 0.0
2.574850299401197 0.0 0.0
2.514970059880238 0.0 0.0
2.455089820359281 0.0 0.0
2.395209580838323 0.0 0.0
2.335329341317365 0.0 0.0
2.275449101796406 0.0 0.0
2.215568862275448 0.0 0.0
2.15568862275449 0.0 0.0
2.095808383233532 0.0 0.0
2.035928143712574 0.0 0.0
1.976047904191615 0.0 0.0
1.916167664670658 0.0 0.0
1.8562874251497 0.0 0.0
1.796407185628741 0.0 0.0
1.736526946107784 0.0 0.0
1.676646706586826 0.0 0.0
1.616766467065867 0.0 0.0
1.55688622754491 0.0 0.0
1.49700598802395 0.0 0.0
1.437125748502995 0.0 0.0
1.377245508982035 0.0 0.0
1.317365269461078 0.0 0.0
1.257485029940119 0.0 0.0
1.19760479041916 0.0 0.0
1.137724550898204 0.0 0.0
1.077844311377245 0.0 0.0
1.017964071856287 0.0 0.0
0.958083832335328 0.0 0.0
0.8982035928143723 0.0 0.0
0.8383233532934131 0.0 0.0
0.7784431137724539 0.0 0.0
0.7185628742514965 0.0 0.0
0.658682634730539 0.0 0.0
0.5988023952095816 0.0 0.0
0.5389221556886223 0.0 0.0
0.4790419161676631 0.0 0.0
0.4191616766467074 0.0 0.0
0.3592814371257482 0.0 0.0
0.2994011976047908 0.0 0.0
0.2395209580838316 0.0 0.0
0.1796407185628741 0.0 0.0
0.1197604790419167 0.0 0.0
0.05988023952095922 0.0 0.0
0.0 0.0588235294116454 0.0
0.0 0.1176470588233168 0.0
0.0 0.1764705882349203 0.0
0.0 0.2352941176465135 0.0
0.0 0.2941176470581066 0.0
0.0 0.3529411764696997 0.0
0.0 0.4117647058812929 0.0
0.0 0.4705882352928861 0.0
0.0 0.5294117647046425 0.0
0.0 0.5882352941165623 0.0
0.0 0.6470588235284821 0.0
0.0 0.7058823529404019 0.0
0.0 0.7647058823523216 0.0
0.0 0.8235294117642414 0.0
0.0 0.8823529411761613 0.0
0.0 0.941176470588081 0.0
9.496671432578891 0.5021202775764965 0.0
0.503328567417594 0.502120277573701 0.0
8.960949321310713 0.5028360638807292 0.0
1.039050678683441 0.5028360638815292 0.0
8.421726050444478 0.5013914029598455 0.0
1.578273949553219 0.5013914029599852 0.0
2.110012838156869 0.501717680037117 0.0
[...]
POINT_DATA 11134
VECTORS vector double
1.0 0.0 0.0
0.0 0.0 0.0
0.0 0.0 0.0
0.0 0.0 0.0
0.0 0.0 0.0
1.0 0.0 0.0
0.0 0.0 0.0
0.0 0.0 0.0
0.0 0.0 0.0
0.0 0.0 0.0
0.0 0.0 0.0
0.0 0.0 0.0
0.0 0.0 0.0
0.0 0.0 0.0
0.0 0.0 0.0
0.0 0.0 0.0
0.0 0.0 0.0
0.0 0.0 0.0
0.0 0.0 0.0
0.0 0.0 0.0
0.0 0.0 0.0
0.0 0.0 0.0
0.0 0.0 0.0
0.0 0.0 0.0
0.0 0.0 0.0
0.0 0.0 0.0
0.0 0.0 0.0
0.0 0.0 0.0
0.0 0.0 0.0
0.0 0.0 0.0
0.0 0.0 0.0
0.0 0.0 0.0
0.0 0.0 0.0
0.0 0.0 0.0
0.0 0.0 0.0
0.0 0.0 0.0
0.0 0.0 0.0
0.0 0.0 0.0
0.0 0.0 0.0
0.0 0.0 0.0
0.0 0.0 0.0
0.0 0.0 0.0
0.0 0.0 0.0
0.0 0.0 0.0
0.0 0.0 0.0
0.0 0.0 0.0
0.0 0.0 0.0
0.0 0.0 0.0
0.0 0.0 0.0
0.0 0.0 0.0
0.0 0.0 0.0
0.0 0.0 0.0
0.0 0.0 0.0
0.0 0.0 0.0
0.0 0.0 0.0
0.0 0.0 0.0
0.0 0.0 0.0
0.0 0.0 0.0
0.0 0.0 0.0
0.0 0.0 0.0
0.0 0.0 0.0
0.0 0.0 0.0
0.0 0.0 0.0
0.0 0.0 0.0
0.0 0.0 0.0
0.0 0.0 0.0
0.0 0.0 0.0
0.0 0.0 0.0
0.0 0.0 0.0
0.0 0.0 0.0
0.0 0.0 0.0
0.0 0.0 0.0
0.0 0.0 0.0
0.0 0.0 0.0
0.0 0.0 0.0
0.0 0.0 0.0
0.0 0.0 0.0
0.0 0.0 0.0
0.0 0.0 0.0
0.0 0.0 0.0
0.0 0.0 0.0
0.0 0.0 0.0
0.0 0.0 0.0
0.0 0.0 0.0
0.0 0.0 0.0
0.0 0.0 0.0
0.0 0.0 0.0
0.0 0.0 0.0
0.0 0.0 0.0
0.0 0.0 0.0
0.0 0.0 0.0
0.0 0.0 0.0
0.0 0.0 0.0
0.0 0.0 0.0
0.0 0.0 0.0
0.0 0.0 0.0
0.0 0.0 0.0
0.0 0.0 0.0
0.0 0.0 0.0
0.0 0.0 0.0
0.0 0.0 0.0
0.0 0.0 0.0
0.0 0.0 0.0
0.0 0.0 0.0
0.0 0.0 0.0
0.0 0.0 0.0
0.0 0.0 0.0
0.0 0.0 0.0
0.0 0.0 0.0
0.0 0.0 0.0
0.0 0.0 0.0
0.0 0.0 0.0
0.0 0.0 0.0
0.0 0.0 0.0
0.0 0.0 0.0
0.0 0.0 0.0
0.0 0.0 0.0
0.0 0.0 0.0
0.0 0.0 0.0
0.0 0.0 0.0
0.0 0.0 0.0
0.0 0.0 0.0
0.0 0.0 0.0
0.0 0.0 0.0
0.0 0.0 0.0
0.0 0.0 0.0
0.0 0.0 0.0
0.0 0.0 0.0
0.0 0.0 0.0
0.0 0.0 0.0
0.0 0.0 0.0
0.0 0.0 0.0
0.0 0.0 0.0
0.0 0.0 0.0
0.0 0.0 0.0
0.0 0.0 0.0
0.0 0.0 0.0
0.0 0.0 0.0
0.0 0.0 0.0
0.0 0.0 0.0
0.0 0.0 0.0
0.0 0.0 0.0
0.0 0.0 0.0
0.0 0.0 0.0
0.0 0.0 0.0
0.0 0.0 0.0
0.0 0.0 0.0
0.0 0.0 0.0
0.0 0.0 0.0
0.0 0.0 0.0
0.0 0.0 0.0
0.0 0.0 0.0
0.0 0.0 0.0
0.0 0.0 0.0
0.0 0.0 0.0
0.0 0.0 0.0
0.0 0.0 0.0
0.0 0.0 0.0
0.0 0.0 0.0
0.0 0.0 0.0
0.0 0.0 0.0
0.0 0.0 0.0
0.0 0.0 0.0
0.0 0.0 0.0
0.0 0.0 0.0
0.0 0.0 0.0
0.0 0.0 0.0
0.0 0.0 0.0
0.0 0.0 0.0
0.0 0.0 0.0
0.0 0.0 0.0
0.5002298398 0.0796124132975 0.0
0.856437438245 0.0451029106137 0.0
1.05885412475 0.0225675649268 0.0
1.16661817981 0.00672959008763 0.0
1.20601683298 0.00213482402684 0.0
1.21200473426 0.00169209111101 0.0
1.21532216589 7.80905295169e-05 0.0
1.21493225944 8.44407211743e-05 0.0
1.2146079526 -6.47177467226e-05 0.0
1.21442292117 -0.00018325298977 0.0
1.21265509197 -0.000809511883084 0.0
1.2030511902 -0.00413939981272 0.0
1.17115401777 -0.00950298946597 0.0
1.07992345045 -0.0201613486469 0.0
0.882714388988 -0.0295483825149 0.0
0.496734087451 -0.0771874861242 0.0
0.0 0.0 0.0
0.0 0.0 0.0
0.0 0.0 0.0
0.0 0.0 0.0
0.0 0.0 0.0
0.0 0.0 0.0
0.0 0.0 0.0
0.0 0.0 0.0
0.0 0.0 0.0
0.0 0.0 0.0
0.0 0.0 0.0
0.0 0.0 0.0
0.0 0.0 0.0
0.0 0.0 0.0
0.0 0.0 0.0
0.0 0.0 0.0
0.0 0.0 0.0
0.0 0.0 0.0
0.0 0.0 0.0
0.0 0.0 0.0
0.0 0.0 0.0
0.0 0.0 0.0
0.0 0.0 0.0
0.0 0.0 0.0
0.0 0.0 0.0
0.0 0.0 0.0
0.0 0.0 0.0
0.0 0.0 0.0
0.0 0.0 0.0
0.0 0.0 0.0
0.0 0.0 0.0
0.0 0.0 0.0
0.0 0.0 0.0
0.0 0.0 0.0
0.0 0.0 0.0
0.0 0.0 0.0
0.0 0.0 0.0
0.0 0.0 0.0
0.0 0.0 0.0
0.0 0.0 0.0
0.0 0.0 0.0
0.0 0.0 0.0
0.0 0.0 0.0
0.0 0.0 0.0
0.0 0.0 0.0
0.0 0.0 0.0
0.0 0.0 0.0
0.0 0.0 0.0
0.0 0.0 0.0
0.0 0.0 0.0
0.0 0.0 0.0
0.0 0.0 0.0
0.0 0.0 0.0
0.0 0.0 0.0
0.0 0.0 0.0
0.0 0.0 0.0
0.0 0.0 0.0
0.0 0.0 0.0
0.0 0.0 0.0
0.0 0.0 0.0
0.0 0.0 0.0
0.0 0.0 0.0
0.0 0.0 0.0
0.0 0.0 0.0
0.0 0.0 0.0
0.0 0.0 0.0
0.0 0.0 0.0
0.0 0.0 0.0
0.0 0.0 0.0
0.0 0.0 0.0
0.0 0.0 0.0
0.0 0.0 0.0
0.0 0.0 0.0
0.0 0.0 0.0
0.0 0.0 0.0
0.0 0.0 0.0
0.0 0.0 0.0
0.0 0.0 0.0
0.0 0.0 0.0
0.0 0.0 0.0
0.0 0.0 0.0
0.0 0.0 0.0
0.0 0.0 0.0
0.0 0.0 0.0
0.0 0.0 0.0
0.0 0.0 0.0
0.0 0.0 0.0
0.0 0.0 0.0
0.0 0.0 0.0
0.0 0.0 0.0
0.0 0.0 0.0
0.0 0.0 0.0
0.0 0.0 0.0
0.0 0.0 0.0
0.0 0.0 0.0
0.0 0.0 0.0
0.0 0.0 0.0
0.0 0.0 0.0
0.0 0.0 0.0
0.0 0.0 0.0
0.0 0.0 0.0
0.0 0.0 0.0
0.0 0.0 0.0
0.0 0.0 0.0
0.0 0.0 0.0
0.0 0.0 0.0
0.0 0.0 0.0
0.0 0.0 0.0
0.0 0.0 0.0
0.0 0.0 0.0
0.0 0.0 0.0
0.0 0.0 0.0
0.0 0.0 0.0
0.0 0.0 0.0
0.0 0.0 0.0
0.0 0.0 0.0
0.0 0.0 0.0
0.0 0.0 0.0
0.0 0.0 0.0
0.0 0.0 0.0
0.0 0.0 0.0
0.0 0.0 0.0
0.0 0.0 0.0
0.0 0.0 0.0
0.0 0.0 0.0
0.0 0.0 0.0
0.0 0.0 0.0
0.0 0.0 0.0
0.0 0.0 0.0
0.0 0.0 0.0
0.0 0.0 0.0
0.0 0.0 0.0
0.0 0.0 0.0
0.0 0.0 0.0
0.0 0.0 0.0
0.0 0.0 0.0
0.0 0.0 0.0
0.0 0.0 0.0
0.0 0.0 0.0
0.0 0.0 0.0
0.0 0.0 0.0
0.0 0.0 0.0
0.0 0.0 0.0
0.0 0.0 0.0
0.0 0.0 0.0
0.0 0.0 0.0
0.0 0.0 0.0
0.0 0.0 0.0
0.0 0.0 0.0
0.0 0.0 0.0
0.0 0.0 0.0
0.0 0.0 0.0
0.0 0.0 0.0
0.0 0.0 0.0
0.0 0.0 0.0
0.0 0.0 0.0
0.0 0.0 0.0
0.0 0.0 0.0
0.0 0.0 0.0
0.0 0.0 0.0
0.0 0.0 0.0
0.0 0.0 0.0
0.0 0.0 0.0
0.0 0.0 0.0
0.0 0.0 0.0
0.0 0.0 0.0
1.0 0.0 0.0
1.0 0.0 0.0
1.0 0.0 0.0
1.0 0.0 0.0
1.0 0.0 0.0
1.0 0.0 0.0
1.0 0.0 0.0
1.0 0.0 0.0
1.0 0.0 0.0
1.0 0.0 0.0
1.0 0.0 0.0
1.0 0.0 0.0
1.0 0.0 0.0
1.0 0.0 0.0
1.0 0.0 0.0
1.0 0.0 0.0
1.21680032935 4.97004397566e-05 0.0
1.13815450431 -0.000828698351514 0.0
1.21708590587 0.000124902130345 0.0
1.21576796767 -0.000144042566047 0.0
1.21595434152 -0.000462180391461 0.0
1.21698031854 -0.00120775931583 0.0
1.21561775489 0.000163827358926 0.0
1.21425548181 -0.000649969253952 0.0
1.21395007487 0.00105193125671 0.0
1.2149608294 -0.00059768232453 0.0
1.21425352475 -0.000133589112231 0.0
1.21557614768 -1.14456821017e-05 0.0
1.21481596737 -0.000111747057409 0.0
1.2149210013 0.000609786694245 0.0
1.21498492788 9.59424695824e-05 0.0
1.21381141124 0.0012125203705 0.0
1.21456816619 -0.00105220543167 0.0
1.21634929549 -0.000598677125852 0.0
1.21208572167 0.00117524250737 0.0
1.21137201732 -0.0165274529081 0.0
1.2119138512 -9.20934402891e-05 0.0
1.21304335921 0.0192103539531 0.0
1.21260938151 0.001395654114 0.0
1.21160460647 0.000865025067201 0.0
1.2106690827 -1.55713397179e-05 0.0
1.21028148102 -0.000987318200441 0.0
1.21221607714 3.95348666523e-05 0.0
1.21018546971 0.00392925681211 0.0
1.20965260869 0.00174014404221 0.0
1.20966895267 -0.000341321609222 0.0
1.20930217155 0.000313875557933 0.0
1.20887544278 4.30137328038e-05 0.0
1.21048739293 0.00133050403432 0.0
1.21016939937 0.000690324413962 0.0
1.21056547863 0.00207750535312 0.0
1.21022820694 0.000735950738811 0.0
1.20757778895 0.000640528973357 0.0
1.20899181444 0.0012428187613 0.0
1.21066008486 0.0001222856241 0.0
1.20981206851 0.000248028894848 0.0
1.21025087599 -0.00100396125691 0.0
1.20887401652 -3.3865034503e-05 0.0
1.20954795613 0.00199074968634 0.0
1.20874040298 -0.00105124746556 0.0
1.2109564358 -0.00127053070702 0.0
1.21128234239 -0.00262890712518 0.0
1.21167992766 0.000390039658871 0.0
1.21221029956 0.00150496234477 0.0
1.20902864133 -0.000125513681359 0.0
1.2101091778 -0.00261399751994 0.0
1.20497581109 0.00262851267804 0.0
1.20685913159 -0.00408702495179 0.0
1.1120496485 -0.0856629403859 0.0
1.20345747863 0.00130570130773 0.0
1.20777917144 -0.00188843879865 0.0
1.10425514704 0.0758082305134 0.0
1.18734137214 -0.00143110469696 0.0
1.18793448297 -0.00181651313898 0.0
1.17989805837 -0.00396047174364 0.0
1.17842287366 -0.0019569531841 0.0
1.1858652688 -0.0023680822493 0.0
1.18692246776 -0.00288896234429 0.0
1.18622298643 0.00526171589785 0.0
1.17981900365 0.00355725560738 0.0
1.18633548313 -0.00170152741935 0.0
1.18637659843 -0.00255260999461 0.0
1.18400047167 0.00156853685955 0.0
1.1863935717 -0.00365119262903 0.0
1.18611006469 -0.00104296607322 0.0
1.18632635823 -0.00323717101866 0.0
1.18603667457 -0.000422456192959 0.0
1.18657422978 -0.00332795689328 0.0
1.18636949176 -0.000429512499995 0.0
1.1810891627 -0.000757190643676 0.0
1.18734366385 -0.00197260769094 0.0
1.18545285173 0.00383633112829 0.0
1.18666671271 -0.0028517168786 0.0
1.184456041 0.00283400993418 0.0
1.18065018749 0.00177454504505 0.0
1.17972639011 -0.00168336943738 0.0
1.18598310598 -0.000255554154095 0.0
1.18356138282 0.00117974952734 0.0
1.18887346848 -1.59810758508e-06 0.0
1.18828619871 -0.0015286886691 0.0
1.18620678922 -0.000198734437431 0.0
1.18876980605 -0.00219520288903 0.0
1.18540896208 0.00129846786078 0.0
1.20507961959 -0.0629562611985 0.0
1.18000061605 0.00120567229044 0.0
1.20383068454 0.0653396002031 0.0
1.15873594415 0.00180738403871 0.0
1.1790094841 -0.00117383304298 0.0
1.03534577547 -0.0050285264277 0.0
1.21580016381 -0.000365427855329 0.0
1.2156953819 0.000898132539658 0.0
1.21613537114 -0.00194834788175 0.0
1.21507056016 -0.000112870569467 0.0
1.21501759359 0.000197327261044 0.0
1.21417211914 0.000740351475755 0.0
1.21496628691 0.000148622995653 0.0
1.21572255105 0.000834217239771 0.0
1.21714816684 0.000508981253049 0.0
1.21698541134 -0.000268490014388 0.0
1.21535562383 -0.000988645085149 0.0
1.21668890956 -0.00139054334672 0.0
1.21396164951 -4.19206380954e-05 0.0
1.21573775466 -5.76414173752e-05 0.0
1.21479107426 0.00200403787848 0.0
1.21477623472 -0.00015321035705 0.0
1.20900440571 0.000195215611268 0.0
1.2172737436 0.000529347885621 0.0
1.08186069712 -0.00144534629648 0.0
1.07999026455 0.00286463983963 0.0
1.08631835955 -0.00101995851627 0.0
1.08904581016 0.00358711789665 0.0
1.08664704923 -0.00174640426912 0.0
1.08811555099 0.00223814022769 0.0
1.08774307602 -0.00123452679023 0.0
1.0892146309 0.0014518723889 0.0
1.08838178623 -0.00031028061204 0.0
1.09058759213 -0.00116063864052 0.0
1.09106837173 0.000339655276047 0.0
1.08422117848 0.000852719015148 0.0
1.0853129546 0.00347066216116 0.0
1.08414261506 0.00383705937585 0.0
1.08615377772 -0.00377391165216 0.0
1.07646696513 -0.00242446277079 0.0
1.0769802514 0.000251306263535 0.0
1.06816634803 0.00159615074658 0.0
1.06936905829 -0.00102588165085 0.0
1.0753594526 9.45681008396e-05 0.0
1.07445764212 0.00239902649321 0.0
1.07666491833 0.00422001127226 0.0
1.07985856139 0.00269081421178 0.0
1.07689960819 0.00467997814894 0.0
1.0794106439 0.000334779894977 0.0
1.07694694044 -0.000930167962983 0.0
1.07838708392 0.00272153858532 0.0
1.07783155234 -0.000572976875624 0.0
1.07668191995 0.000197660648064 0.0
1.07617184075 0.000170940280391 0.0
1.07769792264 0.00349887071682 0.0
1.07190565365 0.00105859907022 0.0
1.07630846373 -0.00128208089479 0.0
1.0771147407 0.000150499081896 0.0
1.07653981101 0.00084259387734 0.0
1.07625737901 4.4510708728e-05 0.0
1.07704532778 0.000240699918034 0.0
1.07787639527 -0.00312528754838 0.0
1.07886208339 0.00235447038337 0.0
1.07667217424 0.000631264229711 0.0
1.21722290919 0.000511547890455 0.0
1.1846040168 -0.00592726852707 0.0
1.0710319943 -0.00248221656281 0.0
1.21396065228 -0.000190175576432 0.0
1.21562216228 0.00176392096168 0.0
1.21496697746 -0.000313201502341 0.0
1.2136666093 0.000251168112524 0.0
1.21537400997 0.000480672851169 0.0
1.2149546991 7.48011898447e-06 0.0
1.21613507553 -0.000802698458818 0.0
1.21518589705 -0.00104154970638 0.0
1.21416929448 0.000366548666302 0.0
1.21512446918 3.16737434007e-05 0.0
1.21528641247 0.000137056223704 0.0
1.21686258582 6.75029818527e-06 0.0
1.21728386097 0.000593718579146 0.0
1.04727974499 0.0030878064241 0.0
1.04850673153 0.0012326829438 0.0
1.06039773955 0.00172841203329 0.0
1.06374005373 -0.00112662074073 0.0
1.12995990868 -0.141861119674 0.0
1.07788701143 5.41900733814e-05 0.0
1.06450540224 0.00594062473553 0.0
1.08495459651 -0.022852593111 0.0
1.06271279963 -0.00403354357426 0.0
1.06245325725 -0.000530516895837 0.0
1.06757273167 -0.000585428736385 0.0
1.0702217086 0.000982038565834 0.0
1.06744561511 -0.00382150677152 0.0
1.06966009143 0.00126985493368 0.0
1.07845150349 -0.00197375082837 0.0
1.13326897597 0.141659544304 0.0
1.06889856625 -0.00438202786624 0.0
1.07080830102 0.00266375605999 0.0
1.06400722789 -0.00230441998142 0.0
1.07283352706 0.00278688915712 0.0
1.05308318516 0.00278813247352 0.0
1.07313062412 0.00376299853516 0.0
1.05283572956 -0.00368137583926 0.0
1.21611829432 -2.24007090777e-05 0.0
1.21492113327 0.000681933703753 0.0
1.05137133972 0.00298516012248 0.0
1.05464581399 -0.00635198147712 0.0
1.21405109776 -9.56755979994e-05 0.0
1.21385679698 -0.000774651993905 0.0
1.05032820286 0.00350444851145 0.0
1.07339454377 0.0175461235837 0.0
1.21435677386 0.00144932569839 0.0
1.21616429236 -0.000604750818043 0.0
1.21361275978 -0.000665697694652 0.0
1.21387606339 0.00138393584143 0.0
1.21467542155 -3.06528272656e-05 0.0
1.21300108413 0.000257783236201 0.0
1.21442462195 0.00142003571636 0.0
1.21384760505 6.36010940427e-05 0.0
1.21398915695 0.000328752306528 0.0
1.03868744317 0.00552987193485 0.0
1.01190716521 0.000740024360525 0.0
1.02561990468 -0.00363503998442 0.0
1.04914017695 0.00168391502437 0.0
1.03368424171 0.00406652811801 0.0
1.14848128329 -0.097193689456 0.0
1.03541979798 -0.000116079682385 0.0
1.15129549213 0.0939240243381 0.0
1.2133765682 0.00104541444697 0.0
1.21546742391 -0.00136040257274 0.0
1.21472665998 -4.56896213442e-06 0.0
1.21507770886 -0.00133746943194 0.0
1.21460835568 0.000330687600857 0.0
1.21405118848 3.26860520122e-05 0.0
1.21313649253 0.000866864789098 0.0
1.21390354149 0.000359384544386 0.0
1.21446595183 0.000165682998473 0.0
1.21670524925 0.000180497307225 0.0
1.21533271786 -0.00368625436753 0.0
1.21351201083 0.00030477777557 0.0
1.2139652052 -0.000810833041484 0.0
1.21373799457 0.00124001987588 0.0
1.21279499228 -0.000447134051938 0.0
1.21346297992 8.80947828318e-05 0.0
1.21330915958 5.80356027303e-05 0.0
1.21508976719 0.000490146902368 0.0
1.21652682171 -0.000535211482308 0.0
1.2147780062 -0.00100480207304 0.0
1.21426253128 -0.00128715564206 0.0
1.21591791534 -0.00171261943793 0.0
1.21260536297 -0.000564232021682 0.0
1.21496184265 -3.63889645958e-05 0.0
1.21216433537 0.00265572730515 0.0
1.21457078511 -0.00012185912433 0.0
1.21307983614 0.00207592940648 0.0
1.21320337999 -0.00242019320025 0.0
1.18582433512 0.0311172559591 0.0
1.21673470854 0.000478483094899 0.0
1.21600450734 0.00114113324919 0.0
1.21644841601 -0.00177882937527 0.0
1.21647254001 8.43349609856e-05 0.0
1.0929617375 -0.0248238295529 0.0
1.02624767724 -0.0344187848928 0.0
1.21468680334 -0.000353236657132 0.0
1.02383771413 0.0338974066721 0.0
1.21421883701 -0.000626667336236 0.0
1.21582051151 -0.000695973781117 0.0
1.13928780408 0.0536459798298 0.0
1.21486259675 -0.000441011383219 0.0
1.2140875434 0.00117503636345 0.0
1.21318565662 0.000393475522112 0.0
1.2130915228 0.000562994333115 0.0
1.21460728947 -0.000559535756922 0.0
1.21680261277 -0.00185557587022 0.0
1.21576195733 0.00199756390372 0.0
1.21649056953 0.000244167614566 0.0
1.20934426854 -0.00069918771937 0.0
1.21328986146 0.00178462030492 0.0
1.2107173225 -0.000924953631216 0.0
1.21002446703 0.000227646776039 0.0
1.21085161214 -0.000342637392044 0.0
1.21202341309 -0.000407704398797 0.0
1.21044773627 -0.000786690629798 0.0
1.21211741473 -0.000160747429769 0.0
1.21242896766 -5.88624993039e-05 0.0
1.21224468595 -0.00077259670679 0.0
1.21169581459 -0.00167008426312 0.0
1.21279280647 0.000107677303919 0.0
1.21137716442 0.000147627264192 0.0
1.21507083759 -0.00197681951624 0.0
1.21439099432 0.00131640921981 0.0
1.17237080162 -0.0284726603419 0.0
1.21672230099 0.000486964260681 0.0
0.914328588908 0.0046156824118 0.0
0.914465363666 -0.00219953576194 0.0
1.21194146275 0.000441450185542 0.0
1.15306960507 -0.0658637863674 0.0
0.885522564347 -0.00176118959234 0.0
0.884362881179 -0.00082690000887 0.0
0.862559021366 0.00293413214477 0.0
0.858547880255 0.00254147266466 0.0
0.860735056043 0.0041074148491 0.0
0.858194477301 0.00383457288342 0.0
0.860075643222 0.00316513086391 0.0
0.857880782803 0.00346787740577 0.0
0.858205584246 0.00203582632434 0.0
0.835730876203 0.00549877987168 0.0
0.832243358529 0.000512473490631 0.0
0.904903807312 -0.00131605454024 0.0
0.91027259283 0.00163590435845 0.0
0.9227932944 -0.00105308307267 0.0
0.924099629945 -0.00499687513586 0.0
0.905294184081 0.00686907415609 0.0
0.907671957774 -0.0053184814016 0.0
0.852712956059 -0.0101286261288 0.0
0.852396024432 0.000410494058117 0.0
0.91770330019 -0.00199319374666 0.0
0.925924592348 -0.00528638028769 0.0
0.932151145999 -0.00167859493057 0.0
0.930277680005 -0.00355418081906 0.0
0.931186318382 -0.00488381809525 0.0
0.930562459269 -0.00255380969412 0.0
0.930668085972 -0.0044135210427 0.0
0.929450810025 -0.00216643827224 0.0
0.93087332622 -0.00465041155821 0.0
0.917926560534 0.00182167721959 0.0
0.910478694555 0.000603764279932 0.0
1.2161270823 -0.000793366527088 0.0
1.07459724835 0.0309602534821 0.0
0.843589356222 -0.00242350323015 0.0
0.884590469102 -0.01735823903 0.0
0.869103225298 0.00128404365522 0.0
0.916705242966 0.0284641986429 0.0
1.21548066579 4.36542306277e-05 0.0
1.21313016842 -0.00167587367315 0.0
1.21637637619 -0.000137502699606 0.0
1.21622480412 -0.00118250552284 0.0
1.20402825031 3.62466196588e-05 0.0
1.20864981535 -0.0355174866925 0.0
0.861297026475 0.002054543627 0.0
1.21253007475 0.00109339846338 0.0
1.21469255175 -0.00102808771765 0.0
1.21390769706 -0.00080416814346 0.0
1.21490926647 -0.00056630303783 0.0
1.21424607878 -0.00042939538339 0.0
1.21468703337 -0.000518066789034 0.0
1.21447288476 -0.000309336219909 0.0
0.871713286646 0.00262224482816 0.0
0.847653181488 0.00510243026753 0.0
1.08001678238 -0.120033900193 0.0
0.843714725071 -0.0058841257218 0.0
1.08155553806 0.118282704538 0.0
0.83289653253 0.00124021172015 0.0
0.835536410763 0.00315209739166 0.0
0.820848119375 0.0118937651266 0.0
0.813710199472 -0.00901384384516 0.0
0.867228277949 0.0119175004444 0.0
0.872252146319 -0.00304034326428 0.0
0.822234668893 -0.00881675417476 0.0
0.825071691256 0.0122372516518 0.0
0.821731810148 -0.00834712769502 0.0
0.822801609738 0.0131999297748 0.0
0.822815811294 0.0131887505235 0.0
0.811683840262 -0.00644167393164 0.0
0.816037094308 0.00143626398725 0.0
0.815929456979 0.00750618873869 0.0
0.820453123257 -0.0100544658784 0.0
0.812463899421 0.00852713280865 0.0
0.818968087907 -0.0123874718605 0.0
0.812353054376 0.00888506897581 0.0
0.817526458324 -0.0121744096941 0.0
0.825065863554 -0.00842992828024 0.0
1.21539048583 0.000124105340883 0.0
1.21739969125 0.000630519803677 0.0
1.21699176372 0.000239593266937 0.0
1.21494789506 0.000304593230499 0.0
1.21435898181 0.000439525323249 0.0
1.21490488509 0.00033842216954 0.0
1.21573037101 0.000476378948938 0.0
1.2138938961 0.000235151587468 0.0
1.21545266031 -0.000512586760652 0.0
1.21541039436 -0.000903996350449 0.0
1.21610244117 -0.00153107805825 0.0
1.21492032802 0.00196004665535 0.0
1.21423387158 -0.000448529642735 0.0
1.20091193114 0.00702972455571 0.0
1.217251693 0.000469658633208 0.0
1.20412213623 0.000307244626656 0.0
1.20704091515 0.00455092662635 0.0
1.20166486463 -0.000415059555059 0.0
1.20357807022 -0.00325246641874 0.0
1.20412559187 0.00100803721864 0.0
1.20329795767 -0.000547696078013 0.0
1.21612636175 -0.00134998832155 0.0
1.21657255457 -0.00133324997765 0.0
0.745066585848 -0.00183721527409 0.0
0.742197357817 0.00239476027907 0.0
0.824517796851 -0.00164342122923 0.0
0.79168791091 0.00490253801837 0.0
0.755320222757 0.00457493907633 0.0
0.761747939686 -0.00397913255223 0.0
0.745782406224 0.00359473946933 0.0
0.749500470044 -0.00421498785134 0.0
0.745059132407 0.00247986908521 0.0
0.750221918367 -0.00299469648728 0.0
0.745191981676 0.00235243047842 0.0
0.747602941509 -0.0027863066056 0.0
0.746203433691 0.00228768260076 0.0
0.737112913367 -0.00294298356317 0.0
0.740343385075 0.00226410664876 0.0
1.19931930766 -0.0014659196314 0.0
1.19885010073 0.000644551638523 0.0
0.819996725549 -0.0108600342682 0.0
0.819725033992 0.01315041955 0.0
1.0113152361 -0.00659098111637 0.0
1.21578604 -0.000287319752644 0.0
1.21466890799 -0.000575998036873 0.0
1.21441289606 0.000669809206861 0.0
0.760386540626 -0.0119670517379 0.0
1.21541387387 0.000233871583349 0.0
1.2142375909 8.13034080462e-05 0.0
1.21450650739 0.00126931680738 0.0
1.21478040541 -0.000182067322365 0.0
1.21494098683 0.000194630264585 0.0
0.772305789911 -0.00696331847998 0.0
0.765616789359 0.00423126183824 0.0
0.769535204717 -0.00579198308673 0.0
0.768819570728 0.00394547513555 0.0
0.771421611481 0.00379186259278 0.0
0.771868244594 -0.00624822321064 0.0
0.822389732718 -0.000611007748498 0.0
0.821859437285 -0.00222416935064 0.0
0.825147623184 0.00335218848046 0.0
0.832169297974 -0.00198836405206 0.0
0.805991954825 0.000114860657263 0.0
0.805680064533 -0.00233355762218 0.0