# vtk DataFile Version 2.0
2D Simulation Python
ASCII
DATASET UNSTRUCTURED_GRID
FIELD FieldData 1
NODES 1 2 int
11134 7299

POINTS 11134 double
0.0 1.0 0.0
1.725 1.0 0.0
8.275 1.0 0.0
10.0 1.0 0.0
10.0 0.0 0.0
0.0 0.0 0.0
0.05948275862057954 1.0 0.0
0.1189655172411507 1.0 0.0
0.1784482758617532 1.0 0.0
0.2379310344823185 1.0 0.0
0.2974137931028384 1.0 0.0
0.3568965517233564 1.0 0.0
0.4163793103438745 1.0 0.0
0.475862068964385 1.0 0.0
0.535344827584889 1.0 0.0
0.5948275862053855 1.0 0.0
0.654310344825882 1.0 0.0
0.7137931034463786 1.0 0.0
0.7732758620668752 1.0 0.0
0.8327586206874149 1.0 0.0
0.8922413793081027 1.0 0.0
0.9517241379289384 1.0 0.0
1.011206896549752 1.0 0.0
1.070689655170612 1.0 0.0
1.130172413791474 1.0 0.0
1.189655172412335 1.0 0.0
1.249137931033183 1.0 0.0
1.308620689654105 1.0 0.0
1.368103448274985 1.0 0.0
1.427586206895818 1.0 0.0
1.487068965516628 1.0 0.0
1.546551724137449 1.0 0.0
1.606034482758285 1.0 0.0
1.665517241379139 1.0 0.0
1.784545454545345 1.0 0.0
1.844090909090676 1.0 0.0
1.903636363635991 1.0 0.0
1.963181818181336 1.0 0.0
2.022727272726716 1.0 0.0
2.082272727272112 1.0 0.0
2.141818181817408 1.0 0.0
2.201363636362702 1.0 0.0
2.260909090908037 1.0 0.0
2.320454545453433 1.0 0.0
2.379999999998759 1.0 0.0
2.439545454544053 1.0 0.0
2.499090909089358 1.0 0.0
2.558636363634754 1.0 0.0
2.618181818180109 1.0 0.0
2.677727272725404 1.0 0.0
2.737272727270631 1.0 0.0
2.796818181815906 1.0 0.0
2.856363636361191 1.0 0.0
2.915909090906408 1.0 0.0
2.975454545451703 1.0 0.0
3.034999999997049 1.0 0.0
3.094545454542377 1.0 0.0
3.154090909087591 1.0 0.0
3.21363636363288 1.0 0.0
3.273181818178196 1.0 0.0
3.332727272723555 1.0 0.0
3.392272727268849 1.0 0.0
3.451818181814208 1.0 0.0
3.511363636359524 1.0 0.0
3.570909090904812 1.0 0.0
3.630454545450026 1.0 0.0
3.689999999995355 1.0 0.0
3.749545454540702 1.0 0.0
3.809090909085996 1.0 0.0
3.868636363631291 1.0 0.0
3.928181818176585 1.0 0.0
3.987727272721861 1.0 0.0
4.047272727267021 1.0 0.0
4.106818181812208 1.0 0.0
4.166363636357625 1.0 0.0
4.225909090903122 1.0 0.0
4.285454545448432 1.0 0.0
4.34499999999356 1.0 0.0
4.404545454538917 1.0 0.0
4.464090909084414 1.0 0.0
4.523636363629791 1.0 0.0
4.583181818174936 1.0 0.0
4.642727272720208 1.0 0.0
4.702272727265705 1.0 0.0
4.761818181811142 1.0 0.0
4.821363636356348 1.0 0.0
4.880909090901557 1.0 0.0
4.940454545446997 1.0 0.0
4.999999999992493 1.0 0.0
5.059545454538018 1.0 0.0
5.119090909083717 1.0 0.0
5.17863636362933 1.0 0.0
5.238181818174827 1.0 0.0
5.297727272720321 1.0 0.0
5.357272727265989 1.0 0.0
5.416818181811662 1.0 0.0
5.476363636357158 1.0 0.0
5.535909090902654 1.0 0.0
5.595454545448262 1.0 0.0
5.65499999999396 1.0 0.0
5.714545454539491 1.0 0.0
5.774090909085032 1.0 0.0
5.83363636363093 1.0 0.0
5.893181818176673 1.0 0.0
5.952727272722171 1.0 0.0
6.012272727267668 1.0 0.0
6.071818181813491 1.0 0.0
6.131363636359353 1.0 0.0
6.190909090904849 1.0 0.0
6.250454545450346 1.0 0.0
6.309999999996052 1.0 0.0
6.369545454541951 1.0 0.0
6.429090909087529 1.0 0.0
6.488636363633026 1.0 0.0
6.548181818178611 1.0 0.0
6.60772727272451 1.0 0.0
6.667272727270209 1.0 0.0
6.726818181815705 1.0 0.0
6.786363636361202 1.0 0.0
6.845909090907071 1.0 0.0
6.905454545452889 1.0 0.0
6.964999999998385 1.0 0.0
7.024545454543881 1.0 0.0
7.084090909089378 1.0 0.0
7.143636363634876 1.0 0.0
7.20318181818037 1.0 0.0
7.262727272725868 1.0 0.0
7.322272727271365 1.0 0.0
7.381818181816859 1.0 0.0
7.441363636362357 1.0 0.0
7.500909090907854 1.0 0.0
7.560454545453348 1.0 0.0
7.619999999998846 1.0 0.0
7.679545454544343 1.0 0.0
7.739090909089839 1.0 0.0
7.798636363635335 1.0 0.0
7.858181818180832 1.0 0.0
7.917727272726328 1.0 0.0
7.977272727271824 1.0 0.0
8.036818181817441 1.0 0.0
8.09636363636334 1.0 0.0
8.155909090909008 1.0 0.0
8.215454545454504 1.0 0.0
8.334482758620055 1.0 0.0
8.393965517240051 1.0 0.0
8.453448275859904 1.0 0.0
8.51293103448045 1.0 0.0
8.572413793100301 1.0 0.0
8.631896551720153 1.0 0.0
8.6913793103407 1.0 0.0
8.750862068961245 1.0 0.0
8.810344827581792 1.0 0.0
8.869827586202339 1.0 0.0
8.929310344822884 1.0 0.0
8.988793103443431 1.0 0.0
9.048275862063978 1.0 0.0
9.107758620684523 1.0 0.0
9.16724137930507 1.0 0.0
9.226724137925617 1.0 0.0
9.286206896546162 1.0 0.0
9.345689655167401 1.0 0.0
9.405172413788595 1.0 0.0
9.46465517240963 1.0 0.0
9.524137931030667 1.0 0.0
9.583620689651704 1.0 0.0
9.643103448272907 1.0 0.0
9.702586206894148 1.0 0.0
9.762068965515388 1.0 0.0
9.821551724136627 1.0 0.0
9.881034482757867 1.0 0.0
9.940517241378963 1.0 0.0
10.0 0.9411764705879904 0.0
10.0 0.882352941175982 0.0
10.0 0.8235294117645425 0.0
10.0 0.764705882353186 0.0
10.0 0.7058823529418295 0.0
10.0 0.6470588235304731 0.0
10.0 0.5882352941191167 0.0
10.0 0.5294117647077601 0.0
10.0 0.4705882352960771 0.0
10.0 0.4117647058840672 0.0
10.0 0.3529411764720576 0.0
10.0 0.2941176470600479 0.0
10.0 0.2352941176480381 0.0
10.0 0.1764705882360285 0.0
10.0 0.1176470588240187 0.0
10.0 0.05882352941200908 0.0
9.940119760479043 0.0 0.0
9.880239520958083 0.0 0.0
9.820359281437126 0.0 0.0
9.760479041916167 0.0 0.0
9.70059880239521 0.0 0.0
9.640718562874252 0.0 0.0
9.580838323353293 0.0 0.0
9.520958083832335 0.0 0.0
9.461077844311376 0.0 0.0
9.401197604790418 0.0 0.0
9.34131736526946 0.0 0.0
9.281437125748502 0.0 0.0
9.221556886227543 0.0 0.0
9.161676646706585 0.0 0.0
9.101796407185628 0.0 0.0
9.041916167664668 0.0 0.0
8.982035928143711 0.0 0.0
8.922155688622752 0.0 0.0
8.862275449101794 0.0 0.0
8.802395209580837 0.0 0.0
8.742514970059878 0.0 0.0
8.68263473053892 0.0 0.0
8.622754491017961 0.0 0.0
8.562874251497004 0.0 0.0
8.502994011976044 0.0 0.0
8.443113772455087 0.0 0.0
8.38323353293413 0.0 0.0
8.32335329341317 0.0 0.0
8.263473053892213 0.0 0.0
8.203592814371254 0.0 0.0
8.143712574850296 0.0 0.0
8.083832335329337 0.0 0.0
8.02395209580838 0.0 0.0
7.964071856287422 0.0 0.0
7.904191616766464 0.0 0.0
7.844311377245505 0.0 0.0
7.784431137724548 0.0 0.0
7.72455089820359 0.0 0.0
7.664670658682631 0.0 0.0
7.604790419161674 0.0 0.0
7.544910179640715 0.0 0.0
7.485029940119757 0.0 0.0
7.425149700598799 0.0 0.0
7.36526946107784 0.0 0.0
7.305389221556883 0.0 0.0
7.245508982035925 0.0 0.0
7.185628742514966 0.0 0.0
7.125748502994009 0.0 0.0
7.065868263473051 0.0 0.0
7.005988023952092 0.0 0.0
6.946107784431135 0.0 0.0
6.886227544910177 0.0 0.0
6.826347305389219 0.0 0.0
6.766467065868261 0.0 0.0
6.706586826347303 0.0 0.0
6.646706586826344 0.0 0.0
6.586826347305387 0.0 0.0
6.526946107784428 0.0 0.0
6.46706586826347 0.0 0.0
6.407185628742512 0.0 0.0
6.347305389221554 0.0 0.0
6.287425149700596 0.0 0.0
6.227544910179638 0.0 0.0
6.16766467065868 0.0 0.0
6.107784431137722 0.0 0.0
6.047904191616764 0.0 0.0
5.988023952095805 0.0 0.0
5.928143712574848 0.0 0.0
5.868263473053889 0.0 0.0
5.808383233532932 0.0 0.0
5.748502994011973 0.0 0.0
5.688622754491016 0.0 0.0
5.628742514970057 0.0 0.0
5.568862275449099 0.0 0.0
5.508982035928141 0.0 0.0
5.449101796407183 0.0 0.0
5.389221556886225 0.0 0.0
5.329341317365267 0.0 0.0
5.269461077844309 0.0 0.0
5.209580838323351 0.0 0.0
5.149700598802393 0.0 0.0
5.089820359281434 0.0 0.0
5.029940119760477 0.0 0.0
4.970059880239518 0.0 0.0
4.91017964071856 0.0 0.0
4.850299401197602 0.0 0.0
4.790419161676644 0.0 0.0
4.730538922155686 0.0 0.0
4.670658682634729 0.0 0.0
4.610778443113769 0.0 0.0
4.550898203592812 0.0 0.0
4.491017964071854 0.0 0.0
4.431137724550896 0.0 0.0
4.371257485029938 0.0 0.0
4.31137724550898 0.0 0.0
4.251497005988022 0.0 0.0
4.191616766467064 0.0 0.0
4.131736526946106 0.0 0.0
4.071856287425147 0.0 0.0
4.01197604790419 0.0 0.0
3.952095808383231 0.0 0.0
3.892215568862274 0.0 0.0
3.832335329341316 0.0 0.0
3.772455089820358 0.0 0.0
3.712574850299399 0.0 0.0
3.652694610778441 0.0 0.0
3.592814371257483 0.0 0.0
3.532934131736526 0.0 0.0
3.473053892215567 0.0 0.0
3.41317365269461 0.0 0.0
3.353293413173652 0.0 0.0
3.293413173652693 0.0 0.0
3.233532934131736 0.0 0.0
3.173652694610777 0.0 0.0
3.113772455089819 0.0 0.0
3.053892215568861 0.0 0.0
2.994011976047903 0.0 0.0
2.934131736526945 0.0 0.0
2.874251497005988 0.0 0.0
2.814371257485028 0.0 0.0
2.754491017964071 0.0 0.0
2.694610778443113 0.0 0.0
2.634730538922155 0.0 0.0
2.574850299401197 0.0 0.0
2.514970059880238 0.0 0.0
2.455089820359281 0.0 0.0
2.395209580838323 0.0 0.0
2.335329341317365 0.0 0.0
2.275449101796406 0.0 0.0
2.215568862275448 0.0 0.0
2.15568862275449 0.0 0.0
2.095808383233532 0.0 0.0
2.035928143712574 0.0 0.0
1.976047904191615 0.0 0.0
1.916167664670658 0.0 0.0
1.8562874251497 0.0 0.0
1.796407185628741 0.0 0.0
1.736526946107784 0.0 0.0
1.676646706586826 0.0 0.0
1.616766467065867 0.0 0.0
1.55688622754491 0.0 0.0
1.49700598802395 0.0 0.0
1.437125748502995 0.0 0.0
1.377245508982035 0.0 0.0
1.317365269461078 0.0 0.0
1.257485029940119 0.0 0.0
1.19760479041916 0.0 0.0
1.137724550898204 0.0 0.0
1.077844311377245 0.0 0.0
1.017964071856287 0.0 0.0
0.958083832335328 0.0 0.0
0.8982035928143723 0.0 0.0
0.8383233532934131 0.0 0.0
0.7784431137724539 0.0 0.0
0.7185628742514965 0.0 0.0
0.658682634730539 0.0 0.0
0.5988023952095816 0.0 0.0
0.5389221556886223 0.0 0.0
0.4790419161676631 0.0 0.0
0.4191616766467074 0.0 0.0
0.3592814371257482 0.0 0.0
0.2994011976047908 0.0 0.0
0.2395209580838316 0.0 0.0
0.1796407185628741 0.0 0.0
0.1197604790419167 0.0 0.0
0.05988023952095922 0.0 0.0
0.0 0.0588235294116454 0.0
0.0 0.1176470588233168 0.0
0.0 0.1764705882349203 0.0
0.0 0.2352941176465135 0.0
0.0 0.2941176470581066 0.0
0.0 0.3529411764696997 0.0
0.0 0.4117647058812929 0.0
0.0 0.4705882352928861 0.0
0.0 0.5294117647046425 0.0
0.0 0.5882352941165623 0.0
0.0 0.6470588235284821 0.0
0.0 0.7058823529404019 0.0
0.0 0.7647058823523216 0.0
0.0 0.8235294117642414 0.0
0.0 0.8823529411761613 0.0
0.0 0.941176470588081 0.0
9.496671432578891 0.5021202775764965 0.0
0.503328567417594 0.502120277573701 0.0
8.960949321310713 0.5028360638807294 0.0
1.039050678683441 0.5028360638815293 0.0
8.421726050444477 0.5013914029598456 0.0
1.578273949553219 0.5013914029599852 0.0
2.110012838156869 0.501717680037117 0.0
[...]
POINT_DATA 11134
VECTORS vector double
1.0 0.0 0.0
0.0 0.0 0.0
0.0 0.0 0.0
0.0 0.0 0.0
1.09785156282 -9.39790944861e-05 0.0
1.0 0.0 0.0
0.0 0.0 0.0
0.0 0.0 0.0
0.0 0.0 0.0
0.0 0.0 0.0
0.0 0.0 0.0
0.0 0.0 0.0
0.0 0.0 0.0
0.0 0.0 0.0
0.0 0.0 0.0
0.0 0.0 0.0
0.0 0.0 0.0
0.0 0.0 0.0
0.0 0.0 0.0
0.0 0.0 0.0
0.0 0.0 0.0
0.0 0.0 0.0
0.0 0.0 0.0
0.0 0.0 0.0
0.0 0.0 0.0
0.0 0.0 0.0
0.0 0.0 0.0
0.0 0.0 0.0
0.0 0.0 0.0
0.0 0.0 0.0
0.0 0.0 0.0
0.0 0.0 0.0
0.0 0.0 0.0
0.0 0.0 0.0
0.0 0.0 0.0
0.0 0.0 0.0
0.0 0.0 0.0
0.0 0.0 0.0
0.0 0.0 0.0
0.0 0.0 0.0
0.0 0.0 0.0
0.0 0.0 0.0
0.0 0.0 0.0
0.0 0.0 0.0
0.0 0.0 0.0
0.0 0.0 0.0
0.0 0.0 0.0
0.0 0.0 0.0
0.0 0.0 0.0
0.0 0.0 0.0
0.0 0.0 0.0
0.0 0.0 0.0
0.0 0.0 0.0
0.0 0.0 0.0
0.0 0.0 0.0
0.0 0.0 0.0
0.0 0.0 0.0
0.0 0.0 0.0
0.0 0.0 0.0
0.0 0.0 0.0
0.0 0.0 0.0
0.0 0.0 0.0
0.0 0.0 0.0
0.0 0.0 0.0
0.0 0.0 0.0
0.0 0.0 0.0
0.0 0.0 0.0
0.0 0.0 0.0
0.0 0.0 0.0
0.0 0.0 0.0
0.0 0.0 0.0
0.0 0.0 0.0
0.0 0.0 0.0
0.0 0.0 0.0
0.0 0.0 0.0
0.0 0.0 0.0
0.0 0.0 0.0
0.0 0.0 0.0
0.0 0.0 0.0
0.0 0.0 0.0
0.0 0.0 0.0
0.0 0.0 0.0
0.0 0.0 0.0
0.0 0.0 0.0
0.0 0.0 0.0
0.0 0.0 0.0
0.0 0.0 0.0
0.0 0.0 0.0
0.0 0.0 0.0
0.0 0.0 0.0
0.0 0.0 0.0
0.0 0.0 0.0
0.0 0.0 0.0
0.0 0.0 0.0
0.0 0.0 0.0
0.0 0.0 0.0
0.0 0.0 0.0
0.0 0.0 0.0
0.0 0.0 0.0
0.0 0.0 0.0
0.0 0.0 0.0
0.0 0.0 0.0
0.0 0.0 0.0
0.0 0.0 0.0
0.0 0.0 0.0
0.0 0.0 0.0
0.0 0.0 0.0
0.0 0.0 0.0
0.0 0.0 0.0
0.0 0.0 0.0
0.0 0.0 0.0
0.0 0.0 0.0
0.0 0.0 0.0
0.0 0.0 0.0
0.0 0.0 0.0
0.0 0.0 0.0
0.0 0.0 0.0
0.0 0.0 0.0
0.0 0.0 0.0
0.0 0.0 0.0
0.0 0.0 0.0
0.0 0.0 0.0
0.0 0.0 0.0
0.0 0.0 0.0
0.0 0.0 0.0
0.0 0.0 0.0
0.0 0.0 0.0
0.0 0.0 0.0
0.0 0.0 0.0
0.0 0.0 0.0
0.0 0.0 0.0
0.0 0.0 0.0
0.0 0.0 0.0
0.0 0.0 0.0
0.0 0.0 0.0
0.0 0.0 0.0
0.0 0.0 0.0
0.0 0.0 0.0
0.0 0.0 0.0
0.0 0.0 0.0
0.0 0.0 0.0
0.0 0.0 0.0
0.0 0.0 0.0
0.0 0.0 0.0
0.0 0.0 0.0
0.0 0.0 0.0
0.0 0.0 0.0
0.0 0.0 0.0
0.0 0.0 0.0
0.0 0.0 0.0
0.0 0.0 0.0
0.0 0.0 0.0
0.0 0.0 0.0
0.0 0.0 0.0
0.0 0.0 0.0
0.0 0.0 0.0
0.0 0.0 0.0
0.0 0.0 0.0
0.0 0.0 0.0
0.0 0.0 0.0
0.0 0.0 0.0
0.0 0.0 0.0
0.0 0.0 0.0
0.0 0.0 0.0
0.0 0.0 0.0
0.0 0.0 0.0
0.0 0.0 0.0
0.0 0.0 0.0
0.0 0.0 0.0
0.0 0.0 0.0
0.0 0.0 0.0
0.441857405157 0.0713873928362 0.0
0.76662864528 0.0416623576511 0.0
0.954209538761 0.0210216210222 0.0
1.054481858 0.00598799040266 0.0
1.09067659982 0.0015579832681 0.0
1.09651989867 -9.32829941669e-05 0.0
1.09965837613 1.29457146983e-05 0.0
1.09952345204 -0.000102042393405 0.0
1.09896042635 -8.93365430981e-05 0.0
1.09852598114 -2.39876747823e-05 0.0
1.09838302343 -3.07949058612e-05 0.0
1.09822438933 -4.44502024481e-05 0.0
1.09821409561 1.40410242952e-05 0.0
1.09815790753 -3.80443295653e-05 0.0
1.09850103824 -1.12303802298e-05 0.0
1.09826059931 -0.000106638283034 0.0
1.09833549261 2.96490748416e-05 0.0
1.09843258548 3.90536020321e-05 0.0
1.09851964757 -2.08204208818e-05 0.0
1.09849686945 -1.15284098708e-06 0.0
1.09856448625 2.64999958044e-05 0.0
1.09837645442 -4.44742350098e-05 0.0
1.09887120482 3.65183214819e-05 0.0
1.0982563886 -2.86670862055e-05 0.0
1.09893597996 3.7676926789e-05 0.0
1.09862494292 5.58413790011e-05 0.0
1.09843497771 -6.53357335057e-05 0.0
1.09905916985 6.01207108645e-05 0.0
1.09876944379 -1.85143709759e-05 0.0
1.09871370471 2.40473713873e-05 0.0
1.09875062127 -2.28711771473e-06 0.0
1.09880471488 -1.36806680033e-05 0.0
1.09867476377 1.11892716257e-05 0.0
1.09909784778 -1.9329709528e-05 0.0
1.09877616106 2.04861480006e-05 0.0
1.09881204828 2.22998414977e-05 0.0
1.09882501152 -6.62082339694e-05 0.0
1.09883699559 3.43755548873e-05 0.0
1.0986823464 1.4802549045e-05 0.0
1.09898258192 -7.86416840087e-05 0.0
1.09849816414 2.52553960449e-05 0.0
1.09841367161 -4.47484109482e-05 0.0
1.09836581908 1.79490976109e-05 0.0
1.0984983982 -3.02442119293e-05 0.0
1.09825397195 -2.80301902218e-05 0.0
1.09823075332 4.51217382849e-05 0.0
1.09819802456 -0.000106157937288 0.0
1.09835309434 2.37573509513e-05 0.0
1.09781794144 1.75338893746e-05 0.0
1.09827668981 -4.42681367492e-05 0.0
1.09710941383 2.67736483904e-06 0.0
1.09821521067 -4.91820559533e-05 0.0
1.09773981134 -2.82916989191e-05 0.0
1.09766122899 2.45600658832e-05 0.0
1.09767509196 -1.00944012941e-05 0.0
1.09765508609 -5.10175231627e-05 0.0
1.09790053971 5.35438584838e-05 0.0
1.09736357504 -6.77648394601e-05 0.0
1.09785672379 6.96039618884e-05 0.0
1.09682865961 -4.20129047802e-06 0.0
1.09793826809 -5.33691489453e-05 0.0
1.09762733162 1.49156757684e-05 0.0
1.09757811696 1.06896953112e-05 0.0
1.09758778001 -1.47694248625e-05 0.0
1.09760544588 -4.29897074002e-06 0.0
1.09791575094 2.13198531735e-05 0.0
1.09737259581 -2.5894560709e-05 0.0
1.09795110903 4.70592945339e-05 0.0
1.096898415 -2.5997115838e-06 0.0
1.09797227377 -2.27190135976e-05 0.0
1.09774442622 4.11947593507e-05 0.0
1.09766766772 -1.85593030416e-05 0.0
1.09766619381 -1.87580121141e-06 0.0
1.0977229777 3.96291397343e-06 0.0
1.09804695926 3.51213977746e-05 0.0
1.09747636582 -5.91055019816e-05 0.0
1.09803201372 5.5107910376e-05 0.0
1.09696161818 -3.75743099918e-06 0.0
1.09803264468 -4.96488324894e-05 0.0
1.09776295964 3.51116371326e-05 0.0
1.09774132169 2.01797588071e-05 0.0
1.09771171629 -1.76561643357e-05 0.0
1.0978062521 -2.64410135515e-05 0.0
1.09775079175 4.32781746327e-05 0.0
1.09813760415 -7.13421702301e-07 0.0
1.09793727928 1.18951976312e-05 0.0
1.09806738467 2.99100307842e-05 0.0
1.0980594454 4.54761806792e-05 0.0
1.09791747725 -5.86887123875e-06 0.0
1.09856904956 5.20552410856e-05 0.0
1.09820715175 3.4928602324e-05 0.0
1.09819817688 -5.59571274778e-05 0.0
1.09824484153 8.02444571305e-05 0.0
1.09833311633 -6.01813965083e-05 0.0
1.09862762482 -2.42922784727e-05 0.0
1.09820553889 6.30535881654e-05 0.0
1.09816687894 -5.83756399564e-05 0.0
1.09814162493 8.58870405031e-07 0.0
1.09825408406 4.74846330546e-05 0.0
1.09851453149 -8.50032289196e-05 0.0
1.09781503497 -1.04751207783e-05 0.0
1.09796672393 -2.83098107178e-05 0.0
1.09804177878 -7.81801451861e-06 0.0
1.09786525603 -5.51098817739e-05 0.0
1.09808241791 6.32430921143e-05 0.0
1.09770002858 -9.26038833932e-05 0.0
1.09762755333 2.00178426477e-05 0.0
1.09767438817 1.64184403704e-05 0.0
1.09769509197 4.64540980475e-06 0.0
1.09799350036 -2.13357975481e-05 0.0
1.09800347884 1.37224377298e-05 0.0
1.0968490854 -8.5219340767e-07 0.0
1.09794836728 -2.30951812593e-05 0.0
1.09750198468 4.71941881957e-05 0.0
1.09799330592 -5.55807287674e-05 0.0
1.09766770227 1.71157524399e-05 0.0
1.09764798039 3.1125571452e-06 0.0
1.09767689729 2.91172442713e-05 0.0
1.0977563977 -2.58099905247e-05 0.0
1.0979644294 -1.6639379839e-05 0.0
1.09684179799 1.30966144731e-05 0.0
1.09789915693 -3.62569597537e-05 0.0
1.09737010207 5.46198673085e-05 0.0
1.09791395651 -5.56920544978e-05 0.0
1.0976020104 2.29819455728e-05 0.0
1.09756393746 -1.48310657535e-05 0.0
1.09752374924 1.03217415295e-05 0.0
1.09759421551 -2.81543798176e-05 0.0
1.09785971576 2.77634671904e-05 0.0
1.09676331186 5.70410757841e-06 0.0
1.09780525494 -4.33585886837e-05 0.0
1.0972445633 3.45492066675e-05 0.0
1.09777114801 -3.04666018042e-05 0.0
1.09748688695 8.79971595416e-06 0.0
1.09748058699 6.25454940337e-06 0.0
1.09751430048 1.47258521218e-05 0.0
1.0976218954 7.10275292057e-06 0.0
1.09798535345 6.12431574293e-05 0.0
1.09692140881 -9.87483699091e-07 0.0
1.09804288244 -3.18664800193e-05 0.0
1.09761239957 7.24304075264e-05 0.0
1.09824932736 -2.72732372012e-05 0.0
1.09807542583 6.58966809571e-05 0.0
1.09814374828 2.09601824813e-05 0.0
1.09818092876 -1.44906203739e-05 0.0
1.0982791932 2.98483390322e-05 0.0
1.09875212003 3.66689786521e-05 0.0
1.09756886702 4.81119214167e-07 0.0
1.09869232594 6.48576570064e-06 0.0
1.09806496301 -3.92901827073e-05 0.0
1.09844137802 -9.72895522279e-05 0.0
1.09799872688 3.6764396964e-05 0.0
1.09780056605 -9.58751371875e-05 0.0
1.09744638219 -4.82144252081e-05 0.0
1.09725733861 -0.000111814911541 0.0
1.09672988324 -9.4581630703e-05 0.0
1.09617255562 -5.82594702329e-05 0.0
1.09572680787 -0.000177861461032 0.0
1.09527543826 -0.000162593549973 0.0
1.09406146521 -0.000176043999972 0.0
1.09311450694 -0.000365239375782 0.0
1.09199011638 -0.000327953852602 0.0
1.09017348463 -0.000358671821772 0.0
1.08855852497 -0.000484186854224 0.0
1.08614758709 -0.000748479525945 0.0
1.08259056945 -0.000588276843049 0.0
1.0794339776 -0.000791640680241 0.0
1.07635757672 -0.00076066674357 0.0
1.07151327349 -0.000776636592576 0.0
1.06785900037 -0.00106743404465 0.0
1.0618566446 -0.00198373870616 0.0
1.05603851864 -0.000691063723219 0.0
1.0504413021 -0.000921695827601 0.0
1.0437716203 -0.00289604172968 0.0
1.03548611463 -0.000890569570591 0.0
1.02723395527 -0.00257676922868 0.0
1.01960296976 -0.00114042883251 0.0
1.01327357188 -0.00149877105091 0.0
1.00863459165 -0.000964524534977 0.0
1.00438538689 -0.000686037170518 0.0
1.00232560448 -0.00036322730968 0.0
1.00070278605 -0.000228502858429 0.0
1.0 0.0 0.0
1.0 0.0 0.0
1.0 0.0 0.0
1.0 0.0 0.0
1.0 0.0 0.0
1.0 0.0 0.0
1.0 0.0 0.0
1.0 0.0 0.0
1.0 0.0 0.0
1.0 0.0 0.0
1.0 0.0 0.0
1.0 0.0 0.0
1.0 0.0 0.0
1.0 0.0 0.0
1.0 0.0 0.0
1.0 0.0 0.0
1.10011664106 0.000439454311941 0.0
1.07109196034 -0.0687218572126 0.0
1.10074673384 5.20730621195e-05 0.0
1.10353547819 -0.0168671535678 0.0
1.10064783067 -0.000814222576024 0.0
1.1012704168 -0.00244778956474 0.0
1.10094776594 0.000144932429313 0.0
1.09896240652 -0.000699154872609 0.0
1.09862243846 0.000745297260437 0.0
1.0991553184 -0.000104195111457 0.0
1.09900725301 -0.000327337027672 0.0
1.09906401751 -9.78984163496e-05 0.0
1.0991579147 -0.000118839524305 0.0
1.09934188741 -0.000286587966648 0.0
1.09921284033 1.13316794783e-06 0.0
1.09912508225 0.000596033191516 0.0
1.09884586185 -0.000536716476487 0.0
1.10142057536 -0.000108877745915 0.0
1.09583587187 0.00112656017021 0.0
1.13089726859 -0.0432189545779 0.0
1.09902877966 0.000228310812255 0.0
1.07509510606 -0.0315387206816 0.0
1.09671213456 0.00116474871031 0.0
1.10018139193 -0.00282078679229 0.0
1.09802194049 7.27843352206e-05 0.0
1.0953889429 -0.000857974795658 0.0
1.09780519651 0.000241591188782 0.0
1.09550733294 0.00340111593101 0.0
1.09458096556 0.00191413929943 0.0
1.09807765609 4.10111163958e-05 0.0
1.09816166875 -1.56161145212e-07 0.0
1.09428793683 8.87393476052e-06 0.0
1.09491964917 0.00144092553001 0.0
1.09527707806 0.000610452015941 0.0
1.09518859847 0.00192350804686 0.0
1.09516866823 0.000687802547606 0.0
1.09311878498 0.000432598590279 0.0
1.09391365504 0.00127668659493 0.0
1.0981067465 0.000156625231969 0.0
1.0980499931 -0.0001241182014 0.0
1.09803115683 9.77996799296e-05 0.0
1.09778970294 -1.14918454088e-05 0.0
1.09858830229 0.00060035394138 0.0
1.09795986354 -3.23152586303e-05 0.0
1.09829946995 -0.000541052538888 0.0
1.09868911154 -0.000784883497013 0.0
1.09672544568 -0.00530424921097 0.0
1.09921544489 -0.000112271281313 0.0
1.09854066745 0.00037295463222 0.0
1.09869209337 -0.000469524138161 0.0
1.09070062179 0.00250953104728 0.0
1.09198719286 -0.00355230091997 0.0
1.09865808451 -0.111044619152 0.0
1.08825095604 0.00127742714884 0.0
1.09827099206 8.60800737114e-05 0.0
1.0168817013 -0.0266785267575 0.0
1.07339466432 -0.00154973359008 0.0
1.0877184408 -0.00889691991305 0.0
1.06665563685 -0.00378286303717 0.0
1.06672931495 -0.00258648429639 0.0
1.09797910313 -1.89387403092e-05 0.0
1.09801140599 -2.96289773868e-05 0.0
1.09803689595 -1.89826795975e-05 0.0
1.09827851609 -0.000285151671014 0.0
1.0738387258 -0.0019205231344 0.0
1.0733795726 -0.00249565134475 0.0
1.07145645091 0.000889036099263 0.0
1.07301635472 -0.00338001635918 0.0
1.07316134615 -0.00102432549363 0.0
1.07274507714 -0.00323775620273 0.0
1.07286056963 -0.000558918936376 0.0
1.07341019348 -0.0037159360607 0.0
1.07300026539 -0.000405350271657 0.0
1.09844979503 0.000305463246344 0.0
1.09786556428 -8.78731788721e-05 0.0
1.0979960641 6.03190814314e-05 0.0
1.0979386384 0.000251158544359 0.0
1.09796525071 2.11404790097e-05 0.0
1.06828476005 0.00122095498544 0.0
1.06679657206 -0.0014246879408 0.0
1.09888167844 1.30060083583e-05 0.0
1.09807878617 -0.000190151697894 0.0
1.09929424675 6.08008651429e-05 0.0
1.08754874544 -0.0132286354808 0.0
1.09916705251 -0.000307564549649 0.0
1.09817164013 -0.00167453624556 0.0
1.07136797213 0.0011371455875 0.0
1.16282822811 -0.0921000272778 0.0
1.09885293681 0.000181461815524 0.0
1.04268919278 -0.0314928329363 0.0
1.04772791565 0.00193854582308 0.0
1.09890194938 -1.84530206337e-05 0.0
1.01917098616 -0.0432426604984 0.0
1.10026910826 0.000256074031153 0.0
1.10091402086 0.000960123620778 0.0
1.10070836564 -0.00117770481272 0.0
1.09926155513 0.000102075365547 0.0
1.099254579 9.98027800352e-05 0.0
1.09923734318 0.000219043187196 0.0
1.09922471938 2.4176655309e-05 0.0
1.09949681522 0.000174449317288 0.0
1.10087496241 -0.000254947860926 0.0
1.10127354949 -0.00438001322557 0.0
1.10007526522 -0.000904210778832 0.0
1.10123170147 -0.00121600370003 0.0
1.09874034674 -0.000103138668573 0.0
1.09925301881 6.89894586781e-05 0.0
1.09960981022 0.00139639305439 0.0
1.09927272338 0.000173063793648 0.0
1.10253168058 -0.0346306898077 0.0
1.10072559609 0.000265986244639 0.0
1.09921223178 5.4194710718e-05 0.0
1.09206659149 -0.00519368762693 0.0
1.09817481108 -5.92256390158e-05 0.0
1.09824368196 4.26758671562e-05 0.0
1.09818994519 -3.2138142569e-05 0.0
1.09819760549 4.27856575453e-05 0.0
1.09801919119 -1.25946830809e-05 0.0
1.09810724125 -3.15766048366e-05 0.0
1.09838379504 0.000294727666014 0.0
1.09837960924 -0.000215249163064 0.0
1.09872577986 -0.000275751603204 0.0
1.09629185181 -0.00230657891559 0.0
1.09929628862 -0.000128286209303 0.0
0.97661703485 0.00364045216503 0.0
0.999601116719 -0.0108986334743 0.0
0.970382449866 -0.00218826768006 0.0
0.97170044435 0.000256556213934 0.0
0.961693947663 0.00164137524258 0.0
0.965049985183 -0.0015167183754 0.0
0.974207010713 -0.00161811558769 0.0
0.967577839695 0.00214749805561 0.0
0.971166370427 0.00364387948406 0.0
0.973541847505 0.00276262588715 0.0
0.97117034084 0.00432308379882 0.0
0.972818761188 0.000379379938867 0.0
0.970827500708 -0.000876502350624 0.0
0.971840818346 0.00278990965317 0.0
0.971386925376 -0.000435231495992 0.0
0.969696029554 0.000188138259427 0.0
0.970043719372 7.30044977903e-05 0.0
0.971251577393 0.00338929152918 0.0
0.966330299469 0.00119560285118 0.0
0.969653646463 -0.000907043915181 0.0
0.970504531944 0.000428070046968 0.0
0.969490591424 0.00059650418452 0.0
0.96999632648 1.90314405399e-05 0.0
0.970259347271 0.000509885883011 0.0
0.971357673345 -0.0033187721351 0.0
0.971878370656 0.00250496214163 0.0
1.09841341657 0.000255108721803 0.0
1.100753907 0.000423499145449 0.0
1.0989179537 -0.0601454174326 0.0
1.09838197232 -0.000266546646147 0.0
1.09899802149 -4.79390118424e-05 0.0
1.10096880217 0.00126730173716 0.0
1.09924041433 9.21309007752e-05 0.0
1.09880415849 0.00010576227127 0.0
1.0995789551 0.000281114519794 0.0
1.09989478305 -0.000197895401611 0.0
1.10152233346 -0.000445056834997 0.0
1.09999714238 -0.00102406627629 0.0
1.09951201914 -1.18882700007e-05 0.0
1.09994193712 -1.73929857349e-05 0.0
1.09986186653 -3.43792781109e-07 0.0
1.1035789437 -0.00824718666371 0.0
1.10106785166 0.000224632093346 0.0
0.943272343599 0.00277835641343 0.0
0.943956817929 0.00124090207352 0.0
1.09916088385 0.000146677745908 0.0
1.07516812274 -0.0133402128348 0.0
1.1254661486 -0.152160972123 0.0
0.970676774519 3.98588935817e-05 0.0
0.958071744478 0.00551861689495 0.0
1.01624052471 -0.0345748346876 0.0
1.09873791176 -0.000270715557381 0.0
1.09825692877 -0.00069878966083 0.0
1.09806161494 -0.000157614034067 0.0
1.09868018159 0.000302330822399 0.0
1.09797581467 -2.54451431837e-05 0.0
1.09787647571 0.000137962706175 0.0
1.09879363591 4.92598300089e-05 0.0
1.00475763222 -0.00901378791586 0.0
1.09800199574 2.87257866257e-05 0.0
1.09793024269 -2.09947452646e-05 0.0
1.09805479658 -3.23556727058e-05 0.0
1.09802050612 3.17769191186e-05 0.0
1.09821439138 0.000166638503132 0.0
1.09784664115 3.90259530537e-05 0.0
1.09816529739 -0.000111943705418 0.0
1.09932426776 0.000106293653257 0.0
1.09538044829 -0.0105894567506 0.0
0.947352903965 0.00258737692528 0.0
0.949769284316 -0.00573280260933 0.0
1.09816859507 -0.000564882956527 0.0
1.09916425387 -0.000203278554007 0.0
1.09914706829 8.17872602427e-05 0.0
1.0582524863 -0.0181216912587 0.0
1.09927651344 -0.000347605721175 0.0
1.09829952124 -0.00316097796832 0.0
1.09799838119 -3.10121522339e-05 0.0
1.09803203868 0.000696427026148 0.0
1.09802473531 2.71332139872e-05 0.0
1.09781975618 -0.000120298940633 0.0
1.09815776005 1.25054666231e-06 0.0
1.09804326252 -4.88120062568e-05 0.0
1.09797820257 1.91321653872e-05 0.0
0.935193885892 0.00502315591583 0.0
0.909612570905 0.00101252482512 0.0
1.09868142552 -0.000172015163926 0.0
1.09875116262 0.000165759082917 0.0
0.929305819267 0.00394471892338 0.0
1.12167759999 -0.113148933568 0.0
1.09874677437 9.42566761888e-05 0.0
1.02172664291 -0.0181978490717 0.0
1.0985340316 0.000580711066811 0.0
1.09835011498 -0.000622541414772 0.0
1.09923738188 0.000136133579867 0.0
1.09921801155 -0.0002411324101 0.0
1.09800507492 3.5532647889e-05 0.0
1.09807717458 -1.47337663756e-05 0.0
1.0979802996 -6.61737428857e-05 0.0
1.09797365624 -0.000124481380873 0.0
1.09794833021 3.75320016139e-05 0.0
1.10003383112 -0.000114781131571 0.0
1.11659129602 -0.0218891396006 0.0
1.09772891832 0.000227934816803 0.0
1.09800682814 3.25200443803e-05 0.0
1.09898495022 0.000432776664953 0.0
1.09776281276 -0.000231024494858 0.0
1.09761506855 -2.72254306634e-05 0.0
1.09755378044 -4.37416097647e-05 0.0
1.09917706908 1.22477020445e-05 0.0
1.10024160106 -0.000677654267296 0.0
1.10042295914 -0.00306539179418 0.0
1.09843274995 -0.00131324548256 0.0
1.10074619412 -0.00204900143215 0.0
1.09725738669 -0.000624575018353 0.0
1.09863746747 7.51354432103e-06 0.0
1.09684043549 0.00204599272078 0.0
1.09875762337 0.00016678049719 0.0
1.09779177476 0.00175872007017 0.0
1.09724478795 -0.00192440331249 0.0
1.06461305591 -0.0478044296591 0.0
1.09923279589 0.000321530828154 0.0
1.10064850697 0.00121931010481 0.0
1.10081801442 -0.00109665615585 0.0
1.10044332121 0.000457884245985 0.0
1.05966435035 -0.0737855451409 0.0
1.02062400061 -0.0527924391325 0.0
1.09876242514 -0.000160905436922 0.0
1.00556578133 -0.0169391219144 0.0
1.09822453191 4.63202385953e-05 0.0
1.09882978268 0.000252051685203 0.0
1.03624781864 -0.0425010070088 0.0
1.09796386884 -0.00022435908464 0.0
1.09814082818 0.000301504458983 0.0
1.09731181884 0.000593556557803 0.0
1.09795346586 0.000163120884254 0.0
1.0991520886 -0.000612944909981 0.0
1.09922398981 -0.00172437569824 0.0
1.09260122403 -0.0208724544205 0.0
1.09938537657 0.000113960838512 0.0
1.0941018157 -0.000683731006749 0.0
1.09836182586 0.00149364491298 0.0
1.09475381147 -0.000774058783661 0.0
1.09501428511 0.000111104213433 0.0
1.09481234713 -0.000421098777812 0.0
1.096694389 -0.000357137899947 0.0
1.09521475846 -0.00118387293538 0.0
1.09656816769 -0.000179989681727 0.0
1.09670378708 -1.89395584507e-05 0.0
1.09728765793 -0.000479123250898 0.0
1.09643737517 -0.00165312205714 0.0
1.1046975724 -0.00670915260528 0.0
1.09519732885 -1.4926055903e-05 0.0
1.09922537555 -0.00143103236473 0.0
1.09951549672 0.00125442237592 0.0
1.11088744749 -0.0790515636305 0.0
1.10012710094 0.000554482701958 0.0
1.09368601757 -0.00269745451088 0.0
1.09924393085 -2.13195552907e-05 0.0
1.09576957059 0.000608111904062 0.0
1.12280591299 -0.103855630009 0.0
1.08645511994 -0.00557552332712 0.0
1.09915689608 -3.75945850197e-05 0.0
1.09795524468 -2.40703395897e-05 0.0
1.09789587891 -2.18523414356e-05 0.0
1.09790196592 -4.42322399283e-07 0.0
1.09784425152 3.31711259231e-05 0.0
1.09773118364 -7.12158270338e-05 0.0
1.0976579016 4.01253224389e-05 0.0
1.09770346217 0.000127792730653 0.0
1.0987002753 -4.29032095658e-05 0.0
1.0981214336 -9.26176525229e-05 0.0
1.09693931313 -0.00118200944241 0.0
1.09898291944 -8.80630035062e-05 0.0
0.826461476236 -0.00134730273664 0.0
0.837147642057 -0.00708583848076 0.0
0.811464297444 0.0061583953865 0.0
0.813255105432 -0.00493643472581 0.0
0.76144045614 -0.00944577271818 0.0
0.761829888317 7.6666286638e-06 0.0
0.822874245812 -0.0021175674406 0.0
0.829648145121 -0.00515074246341 0.0
0.836057363382 -0.00197889087623 0.0
0.83364274098 -0.00350202746219 0.0