# vtk DataFile Version 2.0
2D Simulation Python
ASCII
DATASET UNSTRUCTURED_GRID
FIELD FieldData 1
NODES 1 2 int
11134 7299

POINTS 11134 double
0.0 1.0 0.0
1.725 1.0 0.0
8.275 1.0 0.0
10.0 1.0 0.0
10.0 0.0 0.0
0.0 0.0 0.0
0.05948275862057954 1.0 0.0
0.1189655172411507 1.0 0.0
0.1784482758617532 1.0 0.0
0.2379310344823185 1.0 0.0
0.2974137931028384 1.0 0.0
0.3568965517233564 1.0 0.0
0.4163793103438745 1.0 0.0
0.475862068964385 1.0 0.0
0.535344827584889 1.0 0.0
0.5948275862053855 1.0 0.0
0.654310344825882 1.0 0.0
0.7137931034463786 1.0 0.0
0.7732758620668752 1.0 0.0
0.8327586206874149 1.0 0.0
0.8922413793081027 1.0 0.0
0.9517241379289384 1.0 0.0
1.011206896549752 1.0 0.0
1.070689655170612 1.0 0.0
1.130172413791474 1.0 0.0
1.189655172412335 1.0 0.0
1.249137931033183 1.0 0.0
1.308620689654105 1.0 0.0
1.368103448274985 1.0 0.0
1.427586206895818 1.0 0.0
1.487068965516628 1.0 0.0
1.546551724137449 1.0 0.0
1.606034482758285 1.0 0.0
1.665517241379139 1.0 0.0
1.784545454545345 1.0 0.0
1.844090909090676 1.0 0.0
1.903636363635991 1.0 0.0
1.963181818181336 1.0 0.0
2.022727272726716 1.0 0.0
2.082272727272112 1.0 0.0
2.141818181817408 1.0 0.0
2.201363636362702 1.0 0.0
2.260909090908037 1.0 0.0
2.320454545453433 1.0 0.0
2.379999999998759 1.0 0.0
2.439545454544053 1.0 0.0
2.499090909089358 1.0 0.0
2.558636363634754 1.0 0.0
2.618181818180109 1.0 0.0
2.677727272725404 1.0 0.0
2.737272727270631 1.0 0.0
2.796818181815906 1.0 0.0
2.856363636361191 1.0 0.0
2.915909090906408 1.0 0.0
2.975454545451703 1.0 0.0
3.034999999997049 1.0 0.0
3.094545454542377 1.0 0.0
3.154090909087591 1.0 0.0
3.21363636363288 1.0 0.0
3.273181818178196 1.0 0.0
3.332727272723555 1.0 0.0
3.392272727268849 1.0 0.0
3.451818181814208 1.0 0.0
3.511363636359524 1.0 0.0
3.570909090904812 1.0 0.0
3.630454545450026 1.0 0.0
3.689999999995355 1.0 0.0
3.749545454540702 1.0 0.0
3.809090909085996 1.0 0.0
3.868636363631291 1.0 0.0
3.928181818176585 1.0 0.0
3.987727272721861 1.0 0.0
4.047272727267021 1.0 0.0
4.106818181812208 1.0 0.0
4.166363636357625 1.0 0.0
4.225909090903122 1.0 0.0
4.285454545448432 1.0 0.0
4.34499999999356 1.0 0.0
4.404545454538917 1.0 0.0
4.464090909084414 1.0 0.0
4.523636363629791 1.0 0.0
4.583181818174936 1.0 0.0
4.642727272720208 1.0 0.0
4.702272727265705 1.0 0.0
4.761818181811142 1.0 0.0
4.821363636356348 1.0 0.0
4.880909090901557 1.0 0.0
4.940454545446997 1.0 0.0
4.999999999992493 1.0 0.0
5.059545454538018 1.0 0.0
5.119090909083717 1.0 0.0
5.17863636362933 1.0 0.0
5.238181818174827 1.0 0.0
5.297727272720321 1.0 0.0
5.357272727265989 1.0 0.0
5.416818181811662 1.0 0.0
5.476363636357158 1.0 0.0
5.535909090902654 1.0 0.0
5.595454545448262 1.0 0.0
5.65499999999396 1.0 0.0
5.714545454539491 1.0 0.0
5.774090909085032 1.0 0.0
5.83363636363093 1.0 0.0
5.893181818176673 1.0 0.0
5.952727272722171 1.0 0.0
6.012272727267668 1.0 0.0
6.071818181813491 1.0 0.0
6.131363636359353 1.0 0.0
6.190909090904849 1.0 0.0
6.250454545450346 1.0 0.0
6.309999999996052 1.0 0.0
6.369545454541951 1.0 0.0
6.429090909087529 1.0 0.0
6.488636363633026 1.0 0.0
6.548181818178611 1.0 0.0
6.60772727272451 1.0 0.0
6.667272727270209 1.0 0.0
6.726818181815705 1.0 0.0
6.786363636361202 1.0 0.0
6.845909090907071 1.0 0.0
6.905454545452889 1.0 0.0
6.964999999998385 1.0 0.0
7.024545454543881 1.0 0.0
7.084090909089378 1.0 0.0
7.143636363634876 1.0 0.0
7.20318181818037 1.0 0.0
7.262727272725868 1.0 0.0
7.322272727271365 1.0 0.0
7.381818181816859 1.0 0.0
7.441363636362357 1.0 0.0
7.500909090907854 1.0 0.0
7.560454545453348 1.0 0.0
7.619999999998846 1.0 0.0
7.679545454544343 1.0 0.0
7.739090909089839 1.0 0.0
7.798636363635335 1.0 0.0
7.858181818180832 1.0 0.0
7.917727272726328 1.0 0.0
7.977272727271824 1.0 0.0
8.036818181817441 1.0 0.0
8.09636363636334 1.0 0.0
8.155909090909008 1.0 0.0
8.215454545454504 1.0 0.0
8.334482758620055 1.0 0.0
8.393965517240051 1.0 0.0
8.453448275859904 1.0 0.0
8.51293103448045 1.0 0.0
8.572413793100301 1.0 0.0
8.631896551720153 1.0 0.0
8.6913793103407 1.0 0.0
8.750862068961245 1.0 0.0
8.810344827581792 1.0 0.0
8.869827586202339 1.0 0.0
8.929310344822884 1.0 0.0
8.988793103443431 1.0 0.0
9.048275862063978 1.0 0.0
9.107758620684523 1.0 0.0
9.16724137930507 1.0 0.0
9.226724137925617 1.0 0.0
9.286206896546162 1.0 0.0
9.345689655167401 1.0 0.0
9.405172413788595 1.0 0.0
9.46465517240963 1.0 0.0
9.524137931030667 1.0 0.0
9.583620689651704 1.0 0.0
9.643103448272907 1.0 0.0
9.702586206894148 1.0 0.0
9.762068965515388 1.0 0.0
9.821551724136627 1.0 0.0
9.881034482757867 1.0 0.0
9.940517241378963 1.0 0.0
10.0 0.9411764705879904 0.0
10.0 0.882352941175982 0.0
10.0 0.8235294117645425 0.0
10.0 0.764705882353186 0.0
10.0 0.7058823529418295 0.0
10.0 0.6470588235304731 0.0
10.0 0.5882352941191167 0.0
10.0 0.5294117647077601 0.0
10.0 0.4705882352960771 0.0
10.0 0.4117647058840672 0.0
10.0 0.3529411764720576 0.0
10.0 0.2941176470600479 0.0
10.0 0.2352941176480381 0.0
10.0 0.1764705882360285 0.0
10.0 0.1176470588240187 0.0
10.0 0.05882352941200908 0.0
9.940119760479043 0.0 0.0
9.880239520958083 0.0 0.0
9.820359281437126 0.0 0.0
9.760479041916167 0.0 0.0
9.70059880239521 0.0 0.0
9.640718562874252 0.0 0.0
9.580838323353293 0.0 0.0
9.520958083832335 0.0 0.0
9.461077844311376 0.0 0.0
9.401197604790418 0.0 0.0
9.34131736526946 0.0 0.0
9.281437125748502 0.0 0.0
9.221556886227543 0.0 0.0
9.161676646706585 0.0 0.0
9.101796407185628 0.0 0.0
9.041916167664668 0.0 0.0
8.982035928143711 0.0 0.0
8.922155688622752 0.0 0.0
8.862275449101794 0.0 0.0
8.802395209580837 0.0 0.0
8.742514970059878 0.0 0.0
8.68263473053892 0.0 0.0
8.622754491017961 0.0 0.0
8.562874251497004 0.0 0.0
8.502994011976044 0.0 0.0
8.443113772455087 0.0 0.0
8.38323353293413 0.0 0.0
8.32335329341317 0.0 0.0
8.263473053892213 0.0 0.0
8.203592814371254 0.0 0.0
8.143712574850296 0.0 0.0
8.083832335329337 0.0 0.0
8.02395209580838 0.0 0.0
7.964071856287422 0.0 0.0
7.904191616766464 0.0 0.0
7.844311377245505 0.0 0.0
7.784431137724548 0.0 0.0
7.72455089820359 0.0 0.0
7.664670658682631 0.0 0.0
7.604790419161674 0.0 0.0
7.544910179640715 0.0 0.0
7.485029940119757 0.0 0.0
7.425149700598799 0.0 0.0
7.36526946107784 0.0 0.0
7.305389221556883 0.0 0.0
7.245508982035925 0.0 0.0
7.185628742514966 0.0 0.0
7.125748502994009 0.0 0.0
7.065868263473051 0.0 0.0
7.005988023952092 0.0 0.0
6.946107784431135 0.0 0.0
6.886227544910177 0.0 0.0
6.826347305389219 0.0 0.0
6.766467065868261 0.0 0.0
6.706586826347303 0.0 0.0
6.646706586826344 0.0 0.0
6.586826347305387 0.0 0.0
6.526946107784428 0.0 0.0
6.46706586826347 0.0 0.0
6.407185628742512 0.0 0.0
6.347305389221554 0.0 0.0
6.287425149700596 0.0 0.0
6.227544910179638 0.0 0.0
6.16766467065868 0.0 0.0
6.107784431137722 0.0 0.0
6.047904191616764 0.0 0.0
5.988023952095805 0.0 0.0
5.928143712574848 0.0 0.0
5.868263473053889 0.0 0.0
5.808383233532932 0.0 0.0
5.748502994011973 0.0 0.0
5.688622754491016 0.0 0.0
5.628742514970057 0.0 0.0
5.568862275449099 0.0 0.0
5.508982035928141 0.0 0.0
5.449101796407183 0.0 0.0
5.389221556886225 0.0 0.0
5.329341317365267 0.0 0.0
5.269461077844309 0.0 0.0
5.209580838323351 0.0 0.0
5.149700598802393 0.0 0.0
5.089820359281434 0.0 0.0
5.029940119760477 0.0 0.0
4.970059880239518 0.0 0.0
4.91017964071856 0.0 0.0
4.850299401197602 0.0 0.0
4.790419161676644 0.0 0.0
4.730538922155686 0.0 0.0
4.670658682634729 0.0 0.0
4.610778443113769 0.0 0.0
4.550898203592812 0.0 0.0
4.491017964071854 0.0 0.0
4.431137724550896 0.0 0.0
4.371257485029938 0.0 0.0
4.31137724550898 0.0 0.0
4.251497005988022 0.0 0.0
4.191616766467064 0.0 0.0
4.131736526946106 0.0 0.0
4.071856287425147 0.0 0.0
4.01197604790419 0.0 0.0
3.952095808383231 0.0 0.0
3.892215568862274 0.0 0.0
3.832335329341316 0.0 0.0
3.772455089820358 0.0 0.0
3.712574850299399 0.0 0.0
3.652694610778441 0.0 0.0
3.592814371257483 0.0 0.0
3.532934131736526 0.0 0.0
3.473053892215567 0.0 0.0
3.41317365269461 0.0 0.0
3.353293413173652 0.0 0.0
3.293413173652693 0.0 0.0
3.233532934131736 0.0 0.0
3.173652694610777 0.0 0.0
3.113772455089819 0.0 0.0
3.053892215568861 0.0 0.0
2.994011976047903 0.0 0.0
2.934131736526945 0.0 0.0
2.874251497005988 0.0 0.0
2.814371257485028 0.0 0.0
2.754491017964071 0.0 0.0
2.694610778443113 0.0 0.0
2.634730538922155 0.0 0.0
2.574850299401197 0.0 0.0
2.514970059880238 0.0 0.0
2.455089820359281 0.0 0.0
2.395209580838323 0.0 0.0
2.335329341317365 0.0 0.0
2.275449101796406 0.0 0.0
2.215568862275448 0.0 0.0
2.15568862275449 0.0 0.0
2.095808383233532 0.0 0.0
2.035928143712574 0.0 0.0
1.976047904191615 0.0 0.0
1.916167664670658 0.0 0.0
1.8562874251497 0.0 0.0
1.796407185628741 0.0 0.0
1.736526946107784 0.0 0.0
1.676646706586826 0.0 0.0
1.616766467065867 0.0 0.0
1.55688622754491 0.0 0.0
1.49700598802395 0.0 0.0
1.437125748502995 0.0 0.0
1.377245508982035 0.0 0.0
1.317365269461078 0.0 0.0
1.257485029940119 0.0 0.0
1.19760479041916 0.0 0.0
1.137724550898204 0.0 0.0
1.077844311377245 0.0 0.0
1.017964071856287 0.0 0.0
0.958083832335328 0.0 0.0
0.8982035928143723 0.0 0.0
0.8383233532934131 0.0 0.0
0.7784431137724539 0.0 0.0
0.7185628742514965 0.0 0.0
0.658682634730539 0.0 0.0
0.5988023952095816 0.0 0.0
0.5389221556886223 0.0 0.0
0.4790419161676631 0.0 0.0
0.4191616766467074 0.0 0.0
0.3592814371257482 0.0 0.0
0.2994011976047908 0.0 0.0
0.2395209580838316 0.0 0.0
0.1796407185628741 0.0 0.0
0.1197604790419167 0.0 0.0
0.05988023952095922 0.0 0.0
0.0 0.0588235294116454 0.0
0.0 0.1176470588233168 0.0
0.0 0.1764705882349203 0.0
0.0 0.2352941176465135 0.0
0.0 0.2941176470581066 0.0
0.0 0.3529411764696997 0.0
0.0 0.4117647058812929 0.0
0.0 0.4705882352928861 0.0
0.0 0.5294117647046425 0.0
0.0 0.5882352941165623 0.0
0.0 0.6470588235284821 0.0
0.0 0.7058823529404019 0.0
0.0 0.7647058823523216 0.0
0.0 0.8235294117642414 0.0
0.0 0.8823529411761613 0.0
0.0 0.941176470588081 0.0
9.496671432578891 0.5021202775764965 0.0
0.503328567417594 0.502120277573701 0.0
8.960949321310713 0.5028360638807294 0.0
1.039050678683441 0.5028360638815293 0.0
8.421726050444477 0.5013914029598456 0.0
1.578273949553219 0.5013914029599852 0.0
2.110012838156869 0.501717680037117 0.0
[...]
POINT_DATA 11134
VECTORS vector double
1.0 0.0 0.0
0.0 0.0 0.0
0.0 0.0 0.0
0.0 0.0 0.0
1.18160372498 2.46403711467e-06 0.0
1.0 0.0 0.0
0.0 0.0 0.0
0.0 0.0 0.0
0.0 0.0 0.0
0.0 0.0 0.0
0.0 0.0 0.0
0.0 0.0 0.0
0.0 0.0 0.0
0.0 0.0 0.0
0.0 0.0 0.0
0.0 0.0 0.0
0.0 0.0 0.0
0.0 0.0 0.0
0.0 0.0 0.0
0.0 0.0 0.0
0.0 0.0 0.0
0.0 0.0 0.0
0.0 0.0 0.0
0.0 0.0 0.0
0.0 0.0 0.0
0.0 0.0 0.0
0.0 0.0 0.0
0.0 0.0 0.0
0.0 0.0 0.0
0.0 0.0 0.0
0.0 0.0 0.0
0.0 0.0 0.0
0.0 0.0 0.0
0.0 0.0 0.0
0.0 0.0 0.0
0.0 0.0 0.0
0.0 0.0 0.0
0.0 0.0 0.0
0.0 0.0 0.0
0.0 0.0 0.0
0.0 0.0 0.0
0.0 0.0 0.0
0.0 0.0 0.0
0.0 0.0 0.0
0.0 0.0 0.0
0.0 0.0 0.0
0.0 0.0 0.0
0.0 0.0 0.0
0.0 0.0 0.0
0.0 0.0 0.0
0.0 0.0 0.0
0.0 0.0 0.0
0.0 0.0 0.0
0.0 0.0 0.0
0.0 0.0 0.0
0.0 0.0 0.0
0.0 0.0 0.0
0.0 0.0 0.0
0.0 0.0 0.0
0.0 0.0 0.0
0.0 0.0 0.0
0.0 0.0 0.0
0.0 0.0 0.0
0.0 0.0 0.0
0.0 0.0 0.0
0.0 0.0 0.0
0.0 0.0 0.0
0.0 0.0 0.0
0.0 0.0 0.0
0.0 0.0 0.0
0.0 0.0 0.0
0.0 0.0 0.0
0.0 0.0 0.0
0.0 0.0 0.0
0.0 0.0 0.0
0.0 0.0 0.0
0.0 0.0 0.0
0.0 0.0 0.0
0.0 0.0 0.0
0.0 0.0 0.0
0.0 0.0 0.0
0.0 0.0 0.0
0.0 0.0 0.0
0.0 0.0 0.0
0.0 0.0 0.0
0.0 0.0 0.0
0.0 0.0 0.0
0.0 0.0 0.0
0.0 0.0 0.0
0.0 0.0 0.0
0.0 0.0 0.0
0.0 0.0 0.0
0.0 0.0 0.0
0.0 0.0 0.0
0.0 0.0 0.0
0.0 0.0 0.0
0.0 0.0 0.0
0.0 0.0 0.0
0.0 0.0 0.0
0.0 0.0 0.0
0.0 0.0 0.0
0.0 0.0 0.0
0.0 0.0 0.0
0.0 0.0 0.0
0.0 0.0 0.0
0.0 0.0 0.0
0.0 0.0 0.0
0.0 0.0 0.0
0.0 0.0 0.0
0.0 0.0 0.0
0.0 0.0 0.0
0.0 0.0 0.0
0.0 0.0 0.0
0.0 0.0 0.0
0.0 0.0 0.0
0.0 0.0 0.0
0.0 0.0 0.0
0.0 0.0 0.0
0.0 0.0 0.0
0.0 0.0 0.0
0.0 0.0 0.0
0.0 0.0 0.0
0.0 0.0 0.0
0.0 0.0 0.0
0.0 0.0 0.0
0.0 0.0 0.0
0.0 0.0 0.0
0.0 0.0 0.0
0.0 0.0 0.0
0.0 0.0 0.0
0.0 0.0 0.0
0.0 0.0 0.0
0.0 0.0 0.0
0.0 0.0 0.0
0.0 0.0 0.0
0.0 0.0 0.0
0.0 0.0 0.0
0.0 0.0 0.0
0.0 0.0 0.0
0.0 0.0 0.0
0.0 0.0 0.0
0.0 0.0 0.0
0.0 0.0 0.0
0.0 0.0 0.0
0.0 0.0 0.0
0.0 0.0 0.0
0.0 0.0 0.0
0.0 0.0 0.0
0.0 0.0 0.0
0.0 0.0 0.0
0.0 0.0 0.0
0.0 0.0 0.0
0.0 0.0 0.0
0.0 0.0 0.0
0.0 0.0 0.0
0.0 0.0 0.0
0.0 0.0 0.0
0.0 0.0 0.0
0.0 0.0 0.0
0.0 0.0 0.0
0.0 0.0 0.0
0.0 0.0 0.0
0.0 0.0 0.0
0.0 0.0 0.0
0.0 0.0 0.0
0.0 0.0 0.0
0.0 0.0 0.0
0.0 0.0 0.0
0.0 0.0 0.0
0.0 0.0 0.0
0.0 0.0 0.0
0.294419735053 0.04924621702 0.0
0.545136469744 0.0374745906109 0.0
0.739635691379 0.0265342942127 0.0
0.908556889362 0.0150357784239 0.0
1.03740337106 0.0109236771814 0.0
1.09629861584 0.0105756775262 0.0
1.13474772697 0.00468361062173 0.0
1.1638589818 0.00236885407485 0.0
1.17498746108 0.00145435103342 0.0
1.18012470682 0.000592191614286 0.0
1.182267018 0.00018828441402 0.0
1.18289190902 -3.24052339563e-05 0.0
1.18312202226 -2.40746161708e-05 0.0
1.18276366258 7.68687984413e-06 0.0
1.18304691305 2.32099571239e-05 0.0
1.18229097825 -1.65287460116e-05 0.0
1.18224366504 -1.04119888489e-06 0.0
1.18225115536 -7.32673427942e-06 0.0
1.18226503885 -2.06979606341e-05 0.0
1.18221774428 8.20338297512e-06 0.0
1.18216963083 -5.50710733554e-05 0.0
1.18193200095 -3.12920016047e-05 0.0
1.18233814093 2.07699399409e-05 0.0
1.18170304353 -3.1522285643e-05 0.0
1.18226742008 -2.24890864246e-05 0.0
1.1816998335 -8.65077172802e-05 0.0
1.1814090814 2.34978973006e-05 0.0
1.18205027876 2.43515768027e-05 0.0
1.18167021762 3.68526477209e-07 0.0
1.18153489762 -4.16292283932e-05 0.0
1.18142403693 -1.04512103841e-05 0.0
1.18139035956 -6.30209303069e-05 0.0
1.18122644464 2.46105077696e-05 0.0
1.18165775549 2.39743986568e-06 0.0
1.18132002031 2.47359595009e-05 0.0
1.18137708785 6.30317388283e-06 0.0
1.18155160273 6.98375226301e-06 0.0
1.18162897628 -1.6155590054e-05 0.0
1.18132973719 -2.34637435858e-05 0.0
1.18173702573 3.53554816556e-05 0.0
1.18143559386 1.85745862054e-05 0.0
1.1814809106 1.77541391314e-05 0.0
1.18159215204 1.47284375399e-05 0.0
1.18183788591 -1.83391552246e-05 0.0
1.18166737444 -4.25068183239e-06 0.0
1.18169921427 2.70320270626e-05 0.0
1.18181805796 3.54366078899e-05 0.0
1.18219006412 -1.72521385859e-05 0.0
1.18159490584 -3.22243865354e-05 0.0
1.18207923619 3.44746985792e-06 0.0
1.18080812889 2.02366555555e-06 0.0
1.18208562287 -6.50728463142e-06 0.0
1.18164177202 -9.27484536325e-06 0.0
1.18152699902 -3.50580758368e-05 0.0
1.18145438327 -8.66873263751e-06 0.0
1.18151773726 2.34654229402e-05 0.0
1.18182549049 -1.99758875718e-05 0.0
1.18115038905 -1.5644873159e-05 0.0
1.18167397842 -2.66206583806e-05 0.0
1.18030123849 1.99756130048e-06 0.0
1.18164924513 2.44794672646e-05 0.0
1.18136870458 -3.52859447732e-05 0.0
1.18119534058 -3.88967189899e-05 0.0
1.18113940956 2.87005944524e-05 0.0
1.18119493035 -6.20123661145e-06 0.0
1.18153811139 2.23939255588e-05 0.0
1.18086270764 4.85879621897e-06 0.0
1.18140309774 -6.9038628307e-05 0.0
1.18006347014 6.04836564672e-06 0.0
1.18136858177 1.77220703211e-05 0.0
1.18106761286 -2.24731812784e-05 0.0
1.1808844275 -3.30223221456e-05 0.0
1.18085490815 3.17948734021e-05 0.0
1.1809284855 -1.10178610901e-05 0.0
1.18123930609 8.76591178349e-06 0.0
1.18057650971 3.81849438553e-06 0.0
1.18109376928 -6.58735889549e-05 0.0
1.17973220224 5.07344142688e-06 0.0
1.18105813434 3.17349723533e-05 0.0
1.18069879661 -4.20825046937e-05 0.0
1.18045230605 -4.31386050276e-05 0.0
1.18034761836 4.19451664608e-06 0.0
1.18047421961 -1.44762984494e-05 0.0
1.18024426242 -3.90133051298e-05 0.0
1.18041762591 -3.61243570826e-05 0.0
1.18014449908 8.58419077094e-06 0.0
1.18028692233 -1.85178949612e-05 0.0
1.17998291596 -8.28763875889e-05 0.0
1.17961965079 -9.11159191923e-06 0.0
1.18024580286 5.57222805062e-05 0.0
1.17976189884 -4.50834150211e-06 0.0
1.17962239638 -4.32784969451e-05 0.0
1.17958135124 -1.03695242381e-06 0.0
1.17973714929 4.66236444334e-05 0.0
1.18027204922 -1.30157889479e-05 0.0
1.17961123312 -2.67108066064e-05 0.0
1.17947807169 -1.824988047e-05 0.0
1.17959166052 4.86484062855e-05 0.0
1.17975830315 -3.14791091006e-07 0.0
1.18006648552 -7.03700138457e-05 0.0
1.1794593194 5.45854854574e-06 0.0
1.17989229115 0.000115754844823 0.0
1.18028253768 2.92884821681e-05 0.0
1.1801650586 6.20861941862e-06 0.0
1.1805045779 3.7568450526e-05 0.0
1.18029814308 5.02288988726e-05 0.0
1.18043611531 1.59250042747e-05 0.0
1.18052336119 1.80584081602e-05 0.0
1.18054017197 -2.45469577237e-05 0.0
1.18097540519 5.57219217912e-05 0.0
1.18120299304 3.13035749754e-05 0.0
1.17993368772 -5.9323263327e-06 0.0
1.18125265898 1.49287526505e-05 0.0
1.18079105938 1.59933795029e-05 0.0
1.18139371282 -2.64738645548e-07 0.0
1.18106185615 3.01213213569e-06 0.0
1.1809710343 -4.59178890549e-05 0.0
1.1809475408 1.912055496e-05 0.0
1.18112061033 3.87445801917e-05 0.0
1.18148910233 -7.37028350222e-06 0.0
1.18011065174 -4.10514225597e-06 0.0
1.18149170514 5.51119802102e-05 0.0
1.18092258107 -1.23421544289e-06 0.0
1.18163578795 -1.06298136273e-05 0.0
1.18131321991 1.00856497745e-05 0.0
1.18128900805 -6.78480715666e-06 0.0
1.18143351325 6.25018212237e-05 0.0
1.18170319715 3.31425499978e-05 0.0
1.18210956483 3.02980569388e-05 0.0
1.18085242582 -1.16470918514e-05 0.0
1.18232132976 9.18690853891e-05 0.0
1.18186158375 9.24060879724e-06 0.0
1.1826093877 2.57635814557e-05 0.0
1.18238219143 2.15101325058e-05 0.0
1.18237019021 -2.54501699281e-05 0.0
1.18245788561 4.78245254145e-05 0.0
1.18263851774 2.57637397734e-05 0.0
1.18285106288 -7.00679503238e-05 0.0
1.1814521203 6.81974598727e-06 0.0
1.182630493 -4.80054786811e-05 0.0
1.18186374753 -1.83129892104e-05 0.0
1.18213216139 -0.000148266068965 0.0
1.18127631993 -0.00014980179162 0.0
1.18068878231 -0.000154002680743 0.0
1.17977042649 -0.000165238711734 0.0
1.17894762232 -0.000277280877027 0.0
1.17759961651 -0.000624898356149 0.0
1.17528612532 0.000115072437908 0.0
1.17443277794 -0.00072697358169 0.0
1.17175251616 -0.000358288052246 0.0
1.16884416608 -0.00111268760838 0.0
1.1648169437 -0.000913287402448 0.0
1.16161725698 -0.000784816696549 0.0
1.1568467099 -0.000854215522005 0.0
1.1522282935 -0.00150210737465 0.0
1.14757801431 -0.000929254404966 0.0
1.14143507587 -0.00096148408209 0.0
1.13690848608 -0.00113459484668 0.0
1.13003845829 -0.00178080097529 0.0
1.12382738655 -0.000963326085885 0.0
1.11804398402 -0.00171648079863 0.0
1.11299053279 -0.00153189991837 0.0
1.10598654369 -0.00123514488907 0.0
1.10091753876 -0.0013162564964 0.0
1.09379129944 -0.00199338769711 0.0
1.08612071319 -0.0012205237812 0.0
1.07981116788 -0.00149622105796 0.0
1.07439109617 -0.00129831317167 0.0
1.0667483707 -0.00115457061948 0.0
1.06147185057 -0.00154881892707 0.0
1.05375758199 -0.00243734191921 0.0
1.04637215063 -0.000913897141411 0.0
1.04074075982 -0.000809791811121 0.0
1.03512427345 -0.00244129359114 0.0
1.02756657723 -0.000660296203267 0.0
1.02203662585 -0.00184895736603 0.0
1.01618107444 -0.000791602882201 0.0
1.0116387579 -0.00104404357666 0.0
1.00801295657 -0.000840590865162 0.0
1.00434978525 -0.000653219463318 0.0
1.00241265398 -0.000288252243039 0.0
1.00074688668 -0.00029879032351 0.0
1.0 0.0 0.0
1.0 0.0 0.0
1.0 0.0 0.0
1.0 0.0 0.0
1.0 0.0 0.0
1.0 0.0 0.0
1.0 0.0 0.0
1.0 0.0 0.0
1.0 0.0 0.0
1.0 0.0 0.0
1.0 0.0 0.0
1.0 0.0 0.0
1.0 0.0 0.0
1.0 0.0 0.0
1.0 0.0 0.0
1.0 0.0 0.0
1.16980220795 -0.000955116317793 0.0
1.07604131869 -0.0670437054204 0.0
1.16955860138 -0.000257235490972 0.0
1.16264300079 -0.0579841137271 0.0
1.16976364333 0.00048737986154 0.0
1.18933521964 -0.0315922991697 0.0
1.17650352643 -0.00732785711981 0.0
1.17025146276 -0.000598842515744 0.0
1.17311842657 0.000477018182207 0.0
1.17103511829 -0.000440480342802 0.0
1.17099318359 0.00133763568918 0.0
1.17106860017 -0.000491707297918 0.0
1.17082530452 -5.63245350482e-05 0.0
1.17093765829 -0.000489411550058 0.0
1.17115373725 0.000318852433831 0.0
1.16884453506 -0.000177949203555 0.0
1.1681729189 0.001173351303 0.0
1.16330189236 -0.00045289199787 0.0
1.06767516577 -0.00149822670028 0.0
1.17713791395 -0.0892241513769 0.0
1.18304381789 -0.000574845811879 0.0
1.08040926375 -0.0391363454567 0.0
1.0646179262 -0.000601033296229 0.0
1.13244209049 -0.0388685830766 0.0
1.18192949545 0.000528086889141 0.0
1.06365497315 0.00134322995223 0.0
1.07965444534 -0.00849415292067 0.0
1.06422125129 0.0011234124994 0.0
1.06455701551 -0.00100530450515 0.0
1.18168206397 -0.00037119063861 0.0
1.18229102674 -0.000146590006466 0.0
1.06252098582 0.00296535809216 0.0
1.0638546274 -0.000285588859629 0.0
1.06380328488 0.00156716082605 0.0
1.06427333935 -0.000381087836044 0.0
1.06421582556 0.000986978467978 0.0
1.05952762574 -0.00117704197424 0.0
1.05948611557 0.00221884405952 0.0
1.18216674536 -1.31272288945e-05 0.0
1.18233512371 0.000338879531952 0.0
1.18244084671 -1.53770931807e-05 0.0
1.18379501361 0.000561142527409 0.0
1.18471258867 -0.00224804352039 0.0
1.18268404685 -0.000187484355743 0.0
1.18350579136 -2.50900605463e-06 0.0
1.1788008273 -0.0172563711569 0.0
1.1443177857 -0.0309055525978 0.0
1.18274010805 0.000192762917556 0.0
1.18172651419 -0.000225680011113 0.0
1.18093667311 6.92922808475e-05 0.0
1.02983930745 -0.00273538709192 0.0
1.02991506891 0.00175520115917 0.0
1.09990481281 -0.114621737956 0.0
1.02119678028 0.00145394799954 0.0
1.18436586624 -0.000371189515659 0.0
1.01711096332 -0.0256812636036 0.0
0.952934527819 -0.000644041000076 0.0
1.07217553758 -0.0532306407193 0.0
0.932087526651 -0.000846039202534 0.0
0.959346762052 -0.0125933113428 0.0
1.18210314665 0.000150347174724 0.0
1.18217099468 6.60574507201e-05 0.0
1.18191987017 -0.000216393883475 0.0
1.18189573518 0.000533742137404 0.0
0.952858103941 -0.00157723389979 0.0
0.953037854948 -0.00147039979791 0.0
0.948611506577 0.00206850938494 0.0
0.951100540072 -0.00234063502041 0.0
0.950653632732 0.00179674138405 0.0
0.951145905281 -0.00247370942217 0.0
0.951779758568 0.00029835903341 0.0
0.951504589735 -0.00236469776586 0.0
0.951635193881 0.00112429292159 0.0
1.18190245163 -0.00022214357768 0.0
1.18288527317 0.000646123373671 0.0
1.18218907643 -0.000122585847508 0.0
1.18411600683 -0.000134221281879 0.0
1.18245898419 -0.000188658272812 0.0
0.945217994805 0.00132125464664 0.0
0.944368224822 -0.00012282770665 0.0
1.18113094034 -0.00618607590793 0.0
1.18285434432 -0.000212429287594 0.0
1.18286011458 -0.000155719540004 0.0
1.10196401651 -0.028940980302 0.0
1.18330058377 0.000158509073416 0.0
1.15887386544 -0.020596516317 0.0
0.951502518191 0.00180579798471 0.0
1.1743986698 -0.113388187145 0.0
1.18337448175 -0.000404573225746 0.0
1.04289613784 -0.0281358608281 0.0
0.896628934907 0.00222415023112 0.0
1.18129105278 -0.00010855236758 0.0
1.01983053261 -0.0442543469068 0.0
1.16724967773 -2.4772499934e-05 0.0
1.16757155416 -0.0010056572525 0.0
1.16657075403 0.000449993234607 0.0
1.16822461806 0.00110974799851 0.0
1.17085370513 -8.85830983123e-06 0.0
1.16825725083 -0.000539341070633 0.0
1.17005013731 0.000302110288221 0.0
1.1703452797 5.12658128752e-05 0.0
1.170749838 0.000582097934964 0.0
1.18631880895 -0.0414234343703 0.0
1.17032351733 0.000147460541727 0.0
1.18560864588 -0.0214353672779 0.0
1.17083391867 0.00131456919997 0.0
1.1705264682 8.53720880793e-05 0.0
1.17349459579 -0.000799399151035 0.0
1.17060187667 -0.000113199287439 0.0
1.13675629133 -0.0644387464053 0.0
1.16974386943 -0.000698782046595 0.0
1.18273573832 4.7170466809e-06 0.0
1.11496701011 -0.0185720381132 0.0
1.18298844371 9.32753859554e-05 0.0
1.18280560916 -0.00014197299388 0.0
1.18305793228 0.000216150865926 0.0
1.1830261041 -0.000125569096773 0.0
1.18413824662 0.000462271406351 0.0
1.18328186942 -0.000190281122842 0.0
1.18438423943 -0.000763533546781 0.0
1.18360778624 -0.000106374597012 0.0
1.17445626736 -0.00805487839155 0.0
1.13773005729 -0.0171190684839 0.0
1.18348183712 0.000117296556389 0.0
0.770333059551 0.00177414418413 0.0
0.933713851993 -0.0497417118622 0.0
0.76014881651 0.000127431894703 0.0
0.766847272276 -0.00180251358458 0.0
0.753043764443 0.0018167680322 0.0
0.783800257655 -0.0131171032411 0.0
0.82609117235 -0.0234202851214 0.0
0.758704280356 0.00132559960032 0.0
0.756273604683 0.00100972924704 0.0
0.761584135635 0.000179522746298 0.0
0.759471149817 0.000232853031811 0.0
0.762817795486 -0.000496297347034 0.0
0.757460219554 0.000750543035503 0.0
0.760339908528 0.00109424170555 0.0
0.755727857499 0.000806096496956 0.0
0.758794292378 0.000870526582717 0.0
0.759811595144 -0.000352785368988 0.0
0.761062152552 0.00117954608396 0.0
0.756742491653 0.000411286587904 0.0
0.757428402374 -0.000325012207958 0.0
0.759461277509 5.26460571776e-05 0.0
0.759357171681 0.000724986765631 0.0
0.759267774531 -0.000212014594172 0.0
0.759336410448 -0.000525332140946 0.0
0.761354467157 -0.00208453099265 0.0
0.76158622831 0.00247896478849 0.0
1.18133982629 -0.000166852282243 0.0
1.16309921356 -0.000943970108415 0.0
1.1165575873 -0.0736122476599 0.0
1.18123872145 0.000210635437212 0.0
1.16375422633 -0.00100031692624 0.0
1.16809499932 -0.00229448700875 0.0
1.16388338634 9.06714409811e-05 0.0
1.16508619292 0.00114731941826 0.0
1.16188397348 -5.25129719181e-05 0.0
1.16183123693 0.000652312251669 0.0
1.17482916928 -0.0122108301907 0.0
1.16340707046 -0.000321994633063 0.0
1.16229045072 -0.000391462054469 0.0
1.16235320848 -0.000411512489573 0.0
1.16241559881 0.000549722992824 0.0
1.18443431846 -0.051235089076 0.0
1.16253431925 0.000296733356085 0.0
0.725843989786 0.00266669229299 0.0
0.726313163282 -0.000511638659919 0.0
1.18281369608 -0.000196483494242 0.0
1.07690551038 -0.0197939882285 0.0
1.12514910151 -0.154110883321 0.0
0.761354315019 0.00173672970021 0.0
0.746901444798 0.00822011453529 0.0
0.985442042514 -0.0714894823954 0.0
1.18317679208 0.000133147358465 0.0
1.16259986591 -0.0120313121745 0.0
1.18309148296 -0.000185024568457 0.0
1.18254685423 -0.00240946392337 0.0
1.18270630055 -0.000124611742325 0.0
1.1841003881 0.000222430754087 0.0
1.18417013388 -0.000124231056516 0.0
1.00497014501 -0.00889843366316 0.0
1.18243290848 -0.000158001366078 0.0
1.18293932186 0.000380729332674 0.0
1.18173998737 -0.000225287179486 0.0
1.18253479625 4.69692443326e-05 0.0
1.18164027238 -0.00018798032707 0.0
1.18174904666 0.000266350086169 0.0
1.18179356361 0.000362986834116 0.0
1.18198388777 4.19194855831e-05 0.0
1.13291894052 -0.0373615627873 0.0
0.731956145157 0.0018263937908 0.0
0.734077538326 -0.0027315937873 0.0
1.18261847399 -0.000202190856015 0.0
1.18361879002 -0.0113541300161 0.0
1.18325620676 -0.000257335867228 0.0
1.05656213623 -0.0194790174086 0.0
1.18234882785 0.000293150446143 0.0
1.16328025768 -0.0305665947278 0.0
1.18168871938 -0.000275143942671 0.0
1.18390617166 -0.000526351039001 0.0
1.18146589457 -0.000272531729177 0.0
1.18214601305 0.00103714502941 0.0
1.18121276297 -0.000300584307437 0.0
1.18112717884 0.000312604041812 0.0
1.18161036163 0.000210919787648 0.0
0.720734954792 0.00219837480986 0.0
0.696613094444 0.0028993689899 0.0
1.18108713199 4.23937458778e-05 0.0
1.18149733221 -7.75455225065e-05 0.0
0.706537996357 0.00425299566079 0.0
1.11710612103 -0.121996700963 0.0
1.18351037498 -0.000164610136578 0.0
1.02216872263 -0.0153116898833 0.0
1.1805993464 -0.000360657444544 0.0
1.18006993557 0.000654951070576 0.0
1.17971042919 -0.000285058930653 0.0
1.17949040179 -9.87929441646e-05 0.0
1.18106479351 0.000497842475937 0.0
1.18104452343 4.92969946429e-06 0.0
1.18085102264 -0.000590103136303 0.0
1.18130013491 0.000886414902102 0.0
1.18099117014 -0.000363228550737 0.0
1.10755834377 -0.00052682889568 0.0
1.18267216322 -0.0747319687793 0.0
1.18302497268 0.00045448609202 0.0
1.18121971418 -0.00022303936011 0.0
1.18431981305 -0.00511088956751 0.0
1.18181189831 -0.000474687849964 0.0
1.10644778876 -0.000508134011632 0.0
1.10602498028 -0.000681050586302 0.0
1.10661499609 0.000515567591432 0.0
1.10538582272 0.00235062407046 0.0
1.15419770771 -0.034755679464 0.0
1.10365820684 0.00180989728392 0.0
1.13392088585 -0.0191695138158 0.0
1.10537174263 0.00102724361517 0.0
1.10655760239 0.000423713369345 0.0
1.1064698451 -0.000152971388087 0.0
1.10651399554 0.00034440032178 0.0
1.11136868469 0.000510446352185 0.0
1.1104876885 0.000227517799952 0.0
1.06812583165 -0.0476803249148 0.0
1.18216172124 -0.000657747810727 0.0
1.10749872397 0.000260105610553 0.0
1.11116905884 -0.000927205178519 0.0
1.1502556878 -7.28378508197e-05 0.0
1.06251807091 -0.0738269389356 0.0
1.02098698708 -0.0542932244747 0.0
1.10704360341 -0.000229040559502 0.0
1.00543263758 -0.0173385007934 0.0
1.1839400071 -0.000144323938981 0.0
1.18321785086 -0.000482195007484 0.0
1.03757119242 -0.0389539306205 0.0
1.17965952084 0.00097243991039 0.0
1.17975867583 -0.000433594032677 0.0
1.11121390588 0.00283383811847 0.0
1.11206333482 -0.00163480366253 0.0
1.1812483764 0.000441349722349 0.0
1.17809200619 -0.0261725465435 0.0
1.11789579751 -0.0449245440227 0.0
1.1808345915 -0.000343248125096 0.0
1.0788146118 -0.00268279259783 0.0
1.08093157533 -0.000294800710869 0.0
1.07782388357 -0.00225107809122 0.0
1.07730307587 0.00336540065329 0.0
1.07822351536 -0.00217384188989 0.0
1.07807844184 0.00230558330659 0.0
1.07885971821 -0.00154543874797 0.0
1.07885633824 0.000917914205011 0.0
1.07914915514 0.00144048339275 0.0
1.08788735159 -0.00699341447627 0.0
1.07989851987 0.00124589632748 0.0
1.1513158553 -0.0516862238556 0.0
1.0668265216 -0.00137566400937 0.0
1.16834259435 9.84425352892e-05 0.0
1.16932059398 8.56243085628e-05 0.0
1.12801275424 -0.0889870767738 0.0
1.13241165025 -0.000549621768944 0.0
1.12142887781 -0.0132158105212 0.0
1.18254183427 8.87847064786e-05 0.0
1.0673809747 0.00131248901526 0.0
1.12987229971 -0.109395568744 0.0
1.0973132322 -0.0136427885719 0.0
1.18269815407 -0.000105082393307 0.0
1.18293393883 2.52417051937e-05 0.0
1.18299003628 4.06148891755e-05 0.0
1.18267464861 -0.000100264078274 0.0
1.18308596565 -7.40946770645e-05 0.0
1.18393109407 0.000322171635809 0.0
1.1833222445 -7.22303354822e-05 0.0
1.18457582838 -0.000183329259295 0.0
1.17692706307 -0.0035758997328 0.0
1.18312648676 -0.000140801161417 0.0
1.14502878644 -0.0115972082566 0.0
1.18274045814 0.000111361903096 0.0
0.600975471094 -0.0013668540982 0.0
0.699522947979 -0.0251023868612 0.0
0.587805813738 0.0041498791714 0.0
0.589231771692 -0.00196436094635 0.0
0.537552045269 -0.0047712019129 0.0
0.540088911675 -0.0011728222019 0.0
0.594741701397 -0.00278237067099 0.0
0.598381633589 -0.000847434397544 0.0
0.600820581567 -0.000120869285157 0.0
0.605393701448 -0.00269563624712 0.0
0.605105983645 -0.00123458480515 0.0