# vtk DataFile Version 2.0
2D Simulation Python
ASCII
DATASET UNSTRUCTURED_GRID
FIELD FieldData 1
NODES 1 2 int
11134 7299

POINTS 11134 double
0.0 1.0 0.0
1.725 1.0 0.0
8.275 1.0 0.0
10.0 1.0 0.0
10.0 0.0 0.0
0.0 0.0 0.0
0.05948275862057954 1.0 0.0
0.1189655172411507 1.0 0.0
0.1784482758617532 1.0 0.0
0.2379310344823185 1.0 0.0
0.2974137931028384 1.0 0.0
0.3568965517233564 1.0 0.0
0.4163793103438745 1.0 0.0
0.475862068964385 1.0 0.0
0.535344827584889 1.0 0.0
0.5948275862053855 1.0 0.0
0.654310344825882 1.0 0.0
0.7137931034463786 1.0 0.0
0.7732758620668752 1.0 0.0
0.8327586206874149 1.0 0.0
0.8922413793081027 1.0 0.0
0.9517241379289384 1.0 0.0
1.011206896549752 1.0 0.0
1.070689655170612 1.0 0.0
1.130172413791474 1.0 0.0
1.189655172412335 1.0 0.0
1.249137931033183 1.0 0.0
1.308620689654105 1.0 0.0
1.368103448274985 1.0 0.0
1.427586206895818 1.0 0.0
1.487068965516628 1.0 0.0
1.546551724137449 1.0 0.0
1.606034482758285 1.0 0.0
1.665517241379139 1.0 0.0
1.784545454545345 1.0 0.0
1.844090909090676 1.0 0.0
1.903636363635991 1.0 0.0
1.963181818181336 1.0 0.0
2.022727272726716 1.0 0.0
2.082272727272112 1.0 0.0
2.141818181817408 1.0 0.0
2.201363636362702 1.0 0.0
2.260909090908037 1.0 0.0
2.320454545453433 1.0 0.0
2.379999999998759 1.0 0.0
2.439545454544053 1.0 0.0
2.499090909089358 1.0 0.0
2.558636363634754 1.0 0.0
2.618181818180109 1.0 0.0
2.677727272725404 1.0 0.0
2.737272727270631 1.0 0.0
2.796818181815906 1.0 0.0
2.856363636361191 1.0 0.0
2.915909090906408 1.0 0.0
2.975454545451703 1.0 0.0
3.034999999997049 1.0 0.0
3.094545454542377 1.0 0.0
3.154090909087591 1.0 0.0
3.21363636363288 1.0 0.0
3.273181818178196 1.0 0.0
3.332727272723555 1.0 0.0
3.392272727268849 1.0 0.0
3.451818181814208 1.0 0.0
3.511363636359524 1.0 0.0
3.570909090904812 1.0 0.0
3.630454545450026 1.0 0.0
3.689999999995355 1.0 0.0
3.749545454540702 1.0 0.0
3.809090909085996 1.0 0.0
3.868636363631291 1.0 0.0
3.928181818176585 1.0 0.0
3.987727272721861 1.0 0.0
4.047272727267021 1.0 0.0
4.106818181812208 1.0 0.0
4.166363636357625 1.0 0.0
4.225909090903122 1.0 0.0
4.285454545448432 1.0 0.0
4.34499999999356 1.0 0.0
4.404545454538917 1.0 0.0
4.464090909084414 1.0 0.0
4.523636363629791 1.0 0.0
4.583181818174936 1.0 0.0
4.642727272720208 1.0 0.0
4.702272727265705 1.0 0.0
4.761818181811142 1.0 0.0
4.821363636356348 1.0 0.0
4.880909090901557 1.0 0.0
4.940454545446997 1.0 0.0
4.999999999992493 1.0 0.0
5.059545454538018 1.0 0.0
5.119090909083717 1.0 0.0
5.17863636362933 1.0 0.0
5.238181818174827 1.0 0.0
5.297727272720321 1.0 0.0
5.357272727265989 1.0 0.0
5.416818181811662 1.0 0.0
5.476363636357158 1.0 0.0
5.535909090902654 1.0 0.0
5.595454545448262 1.0 0.0
5.65499999999396 1.0 0.0
5.714545454539491 1.0 0.0
5.774090909085032 1.0 0.0
5.83363636363093 1.0 0.0
5.893181818176673 1.0 0.0
5.952727272722171 1.0 0.0
6.012272727267668 1.0 0.0
6.071818181813491 1.0 0.0
6.131363636359353 1.0 0.0
6.190909090904849 1.0 0.0
6.250454545450346 1.0 0.0
6.309999999996052 1.0 0.0
6.369545454541951 1.0 0.0
6.429090909087529 1.0 0.0
6.488636363633026 1.0 0.0
6.548181818178611 1.0 0.0
6.60772727272451 1.0 0.0
6.667272727270209 1.0 0.0
6.726818181815705 1.0 0.0
6.786363636361202 1.0 0.0
6.845909090907071 1.0 0.0
6.905454545452889 1.0 0.0
6.964999999998385 1.0 0.0
7.024545454543881 1.0 0.0
7.084090909089378 1.0 0.0
7.143636363634876 1.0 0.0
7.20318181818037 1.0 0.0
7.262727272725868 1.0 0.0
7.322272727271365 1.0 0.0
7.381818181816859 1.0 0.0
7.441363636362357 1.0 0.0
7.500909090907854 1.0 0.0
7.560454545453348 1.0 0.0
7.619999999998846 1.0 0.0
7.679545454544343 1.0 0.0
7.739090909089839 1.0 0.0
7.798636363635335 1.0 0.0
7.858181818180832 1.0 0.0
7.917727272726328 1.0 0.0
7.977272727271824 1.0 0.0
8.036818181817441 1.0 0.0
8.09636363636334 1.0 0.0
8.155909090909008 1.0 0.0
8.215454545454504 1.0 0.0
8.334482758620055 1.0 0.0
8.393965517240051 1.0 0.0
8.453448275859904 1.0 0.0
8.51293103448045 1.0 0.0
8.572413793100301 1.0 0.0
8.631896551720153 1.0 0.0
8.6913793103407 1.0 0.0
8.750862068961245 1.0 0.0
8.810344827581792 1.0 0.0
8.869827586202339 1.0 0.0
8.929310344822884 1.0 0.0
8.988793103443431 1.0 0.0
9.048275862063978 1.0 0.0
9.107758620684523 1.0 0.0
9.16724137930507 1.0 0.0
9.226724137925617 1.0 0.0
9.286206896546162 1.0 0.0
9.345689655167401 1.0 0.0
9.405172413788595 1.0 0.0
9.46465517240963 1.0 0.0
9.524137931030667 1.0 0.0
9.583620689651704 1.0 0.0
9.643103448272907 1.0 0.0
9.702586206894148 1.0 0.0
9.762068965515388 1.0 0.0
9.821551724136627 1.0 0.0
9.881034482757867 1.0 0.0
9.940517241378963 1.0 0.0
10.0 0.9411764705879904 0.0
10.0 0.882352941175982 0.0
10.0 0.8235294117645425 0.0
10.0 0.764705882353186 0.0
10.0 0.7058823529418295 0.0
10.0 0.6470588235304731 0.0
10.0 0.5882352941191167 0.0
10.0 0.5294117647077601 0.0
10.0 0.4705882352960771 0.0
10.0 0.4117647058840672 0.0
10.0 0.3529411764720576 0.0
10.0 0.2941176470600479 0.0
10.0 0.2352941176480381 0.0
10.0 0.1764705882360285 0.0
10.0 0.1176470588240187 0.0
10.0 0.05882352941200908 0.0
9.940119760479043 0.0 0.0
9.880239520958083 0.0 0.0
9.820359281437126 0.0 0.0
9.760479041916167 0.0 0.0
9.70059880239521 0.0 0.0
9.640718562874252 0.0 0.0
9.580838323353293 0.0 0.0
9.520958083832335 0.0 0.0
9.461077844311376 0.0 0.0
9.401197604790418 0.0 0.0
9.34131736526946 0.0 0.0
9.281437125748502 0.0 0.0
9.221556886227543 0.0 0.0
9.161676646706585 0.0 0.0
9.101796407185628 0.0 0.0
9.041916167664668 0.0 0.0
8.982035928143711 0.0 0.0
8.922155688622752 0.0 0.0
8.862275449101794 0.0 0.0
8.802395209580837 0.0 0.0
8.742514970059878 0.0 0.0
8.68263473053892 0.0 0.0
8.622754491017961 0.0 0.0
8.562874251497004 0.0 0.0
8.502994011976044 0.0 0.0
8.443113772455087 0.0 0.0
8.38323353293413 0.0 0.0
8.32335329341317 0.0 0.0
8.263473053892213 0.0 0.0
8.203592814371254 0.0 0.0
8.143712574850296 0.0 0.0
8.083832335329337 0.0 0.0
8.02395209580838 0.0 0.0
7.964071856287422 0.0 0.0
7.904191616766464 0.0 0.0
7.844311377245505 0.0 0.0
7.784431137724548 0.0 0.0
7.72455089820359 0.0 0.0
7.664670658682631 0.0 0.0
7.604790419161674 0.0 0.0
7.544910179640715 0.0 0.0
7.485029940119757 0.0 0.0
7.425149700598799 0.0 0.0
7.36526946107784 0.0 0.0
7.305389221556883 0.0 0.0
7.245508982035925 0.0 0.0
7.185628742514966 0.0 0.0
7.125748502994009 0.0 0.0
7.065868263473051 0.0 0.0
7.005988023952092 0.0 0.0
6.946107784431135 0.0 0.0
6.886227544910177 0.0 0.0
6.826347305389219 0.0 0.0
6.766467065868261 0.0 0.0
6.706586826347303 0.0 0.0
6.646706586826344 0.0 0.0
6.586826347305387 0.0 0.0
6.526946107784428 0.0 0.0
6.46706586826347 0.0 0.0
6.407185628742512 0.0 0.0
6.347305389221554 0.0 0.0
6.287425149700596 0.0 0.0
6.227544910179638 0.0 0.0
6.16766467065868 0.0 0.0
6.107784431137722 0.0 0.0
6.047904191616764 0.0 0.0
5.988023952095805 0.0 0.0
5.928143712574848 0.0 0.0
5.868263473053889 0.0 0.0
5.808383233532932 0.0 0.0
5.748502994011973 0.0 0.0
5.688622754491016 0.0 0.0
5.628742514970057 0.0 0.0
5.568862275449099 0.0 0.0
5.508982035928141 0.0 0.0
5.449101796407183 0.0 0.0
5.389221556886225 0.0 0.0
5.329341317365267 0.0 0.0
5.269461077844309 0.0 0.0
5.209580838323351 0.0 0.0
5.149700598802393 0.0 0.0
5.089820359281434 0.0 0.0
5.029940119760477 0.0 0.0
4.970059880239518 0.0 0.0
4.91017964071856 0.0 0.0
4.850299401197602 0.0 0.0
4.790419161676644 0.0 0.0
4.730538922155686 0.0 0.0
4.670658682634729 0.0 0.0
4.610778443113769 0.0 0.0
4.550898203592812 0.0 0.0
4.491017964071854 0.0 0.0
4.431137724550896 0.0 0.0
4.371257485029938 0.0 0.0
4.31137724550898 0.0 0.0
4.251497005988022 0.0 0.0
4.191616766467064 0.0 0.0
4.131736526946106 0.0 0.0
4.071856287425147 0.0 0.0
4.01197604790419 0.0 0.0
3.952095808383231 0.0 0.0
3.892215568862274 0.0 0.0
3.832335329341316 0.0 0.0
3.772455089820358 0.0 0.0
3.712574850299399 0.0 0.0
3.652694610778441 0.0 0.0
3.592814371257483 0.0 0.0
3.532934131736526 0.0 0.0
3.473053892215567 0.0 0.0
3.41317365269461 0.0 0.0
3.353293413173652 0.0 0.0
3.293413173652693 0.0 0.0
3.233532934131736 0.0 0.0
3.173652694610777 0.0 0.0
3.113772455089819 0.0 0.0
3.053892215568861 0.0 0.0
2.994011976047903 0.0 0.0
2.934131736526945 0.0 0.0
2.874251497005988 0.0 0.0
2.814371257485028 0.0 0.0
2.754491017964071 0.0 0.0
2.694610778443113 0.0 0.0
2.634730538922155 0.0 0.0
2.574850299401197 0.0 0.0
2.514970059880238 0.0 0.0
2.455089820359281 0.0 0.0
2.395209580838323 0.0 0.0
2.335329341317365 0.0 0.0
2.275449101796406 0.0 0.0
2.215568862275448 0.0 0.0
2.15568862275449 0.0 0.0
2.095808383233532 0.0 0.0
2.035928143712574 0.0 0.0
1.976047904191615 0.0 0.0
1.916167664670658 0.0 0.0
1.8562874251497 0.0 0.0
1.796407185628741 0.0 0.0
1.736526946107784 0.0 0.0
1.676646706586826 0.0 0.0
1.616766467065867 0.0 0.0
1.55688622754491 0.0 0.0
1.49700598802395 0.0 0.0
1.437125748502995 0.0 0.0
1.377245508982035 0.0 0.0
1.317365269461078 0.0 0.0
1.257485029940119 0.0 0.0
1.19760479041916 0.0 0.0
1.137724550898204 0.0 0.0
1.077844311377245 0.0 0.0
1.017964071856287 0.0 0.0
0.958083832335328 0.0 0.0
0.8982035928143723 0.0 0.0
0.8383233532934131 0.0 0.0
0.7784431137724539 0.0 0.0
0.7185628742514965 0.0 0.0
0.658682634730539 0.0 0.0
0.5988023952095816 0.0 0.0
0.5389221556886223 0.0 0.0
0.4790419161676631 0.0 0.0
0.4191616766467074 0.0 0.0
0.3592814371257482 0.0 0.0
0.2994011976047908 0.0 0.0
0.2395209580838316 0.0 0.0
0.1796407185628741 0.0 0.0
0.1197604790419167 0.0 0.0
0.05988023952095922 0.0 0.0
0.0 0.0588235294116454 0.0
0.0 0.1176470588233168 0.0
0.0 0.1764705882349203 0.0
0.0 0.2352941176465135 0.0
0.0 0.2941176470581066 0.0
0.0 0.3529411764696997 0.0
0.0 0.4117647058812929 0.0
0.0 0.4705882352928861 0.0
0.0 0.5294117647046425 0.0
0.0 0.5882352941165623 0.0
0.0 0.6470588235284821 0.0
0.0 0.7058823529404019 0.0
0.0 0.7647058823523216 0.0
0.0 0.8235294117642414 0.0
0.0 0.8823529411761613 0.0
0.0 0.941176470588081 0.0
9.496671432578891 0.5021202775764965 0.0
0.503328567417594 0.502120277573701 0.0
8.960949321310713 0.5028360638807294 0.0
1.039050678683441 0.5028360638815293 0.0
8.421726050444477 0.5013914029598456 0.0
1.578273949553219 0.5013914029599852 0.0
2.110012838156869 0.501717680037117 0.0
[...]
POINT_DATA 11134
VECTORS vector double
1.0 0.0 0.0
0.0 0.0 0.0
0.0 0.0 0.0
0.0 0.0 0.0
1.16419067314 5.12012694062e-06 0.0
1.0 0.0 0.0
0.0 0.0 0.0
0.0 0.0 0.0
0.0 0.0 0.0
0.0 0.0 0.0
0.0 0.0 0.0
0.0 0.0 0.0
0.0 0.0 0.0
0.0 0.0 0.0
0.0 0.0 0.0
0.0 0.0 0.0
0.0 0.0 0.0
0.0 0.0 0.0
0.0 0.0 0.0
0.0 0.0 0.0
0.0 0.0 0.0
0.0 0.0 0.0
0.0 0.0 0.0
0.0 0.0 0.0
0.0 0.0 0.0
0.0 0.0 0.0
0.0 0.0 0.0
0.0 0.0 0.0
0.0 0.0 0.0
0.0 0.0 0.0
0.0 0.0 0.0
0.0 0.0 0.0
0.0 0.0 0.0
0.0 0.0 0.0
0.0 0.0 0.0
0.0 0.0 0.0
0.0 0.0 0.0
0.0 0.0 0.0
0.0 0.0 0.0
0.0 0.0 0.0
0.0 0.0 0.0
0.0 0.0 0.0
0.0 0.0 0.0
0.0 0.0 0.0
0.0 0.0 0.0
0.0 0.0 0.0
0.0 0.0 0.0
0.0 0.0 0.0
0.0 0.0 0.0
0.0 0.0 0.0
0.0 0.0 0.0
0.0 0.0 0.0
0.0 0.0 0.0
0.0 0.0 0.0
0.0 0.0 0.0
0.0 0.0 0.0
0.0 0.0 0.0
0.0 0.0 0.0
0.0 0.0 0.0
0.0 0.0 0.0
0.0 0.0 0.0
0.0 0.0 0.0
0.0 0.0 0.0
0.0 0.0 0.0
0.0 0.0 0.0
0.0 0.0 0.0
0.0 0.0 0.0
0.0 0.0 0.0
0.0 0.0 0.0
0.0 0.0 0.0
0.0 0.0 0.0
0.0 0.0 0.0
0.0 0.0 0.0
0.0 0.0 0.0
0.0 0.0 0.0
0.0 0.0 0.0
0.0 0.0 0.0
0.0 0.0 0.0
0.0 0.0 0.0
0.0 0.0 0.0
0.0 0.0 0.0
0.0 0.0 0.0
0.0 0.0 0.0
0.0 0.0 0.0
0.0 0.0 0.0
0.0 0.0 0.0
0.0 0.0 0.0
0.0 0.0 0.0
0.0 0.0 0.0
0.0 0.0 0.0
0.0 0.0 0.0
0.0 0.0 0.0
0.0 0.0 0.0
0.0 0.0 0.0
0.0 0.0 0.0
0.0 0.0 0.0
0.0 0.0 0.0
0.0 0.0 0.0
0.0 0.0 0.0
0.0 0.0 0.0
0.0 0.0 0.0
0.0 0.0 0.0
0.0 0.0 0.0
0.0 0.0 0.0
0.0 0.0 0.0
0.0 0.0 0.0
0.0 0.0 0.0
0.0 0.0 0.0
0.0 0.0 0.0
0.0 0.0 0.0
0.0 0.0 0.0
0.0 0.0 0.0
0.0 0.0 0.0
0.0 0.0 0.0
0.0 0.0 0.0
0.0 0.0 0.0
0.0 0.0 0.0
0.0 0.0 0.0
0.0 0.0 0.0
0.0 0.0 0.0
0.0 0.0 0.0
0.0 0.0 0.0
0.0 0.0 0.0
0.0 0.0 0.0
0.0 0.0 0.0
0.0 0.0 0.0
0.0 0.0 0.0
0.0 0.0 0.0
0.0 0.0 0.0
0.0 0.0 0.0
0.0 0.0 0.0
0.0 0.0 0.0
0.0 0.0 0.0
0.0 0.0 0.0
0.0 0.0 0.0
0.0 0.0 0.0
0.0 0.0 0.0
0.0 0.0 0.0
0.0 0.0 0.0
0.0 0.0 0.0
0.0 0.0 0.0
0.0 0.0 0.0
0.0 0.0 0.0
0.0 0.0 0.0
0.0 0.0 0.0
0.0 0.0 0.0
0.0 0.0 0.0
0.0 0.0 0.0
0.0 0.0 0.0
0.0 0.0 0.0
0.0 0.0 0.0
0.0 0.0 0.0
0.0 0.0 0.0
0.0 0.0 0.0
0.0 0.0 0.0
0.0 0.0 0.0
0.0 0.0 0.0
0.0 0.0 0.0
0.0 0.0 0.0
0.0 0.0 0.0
0.0 0.0 0.0
0.0 0.0 0.0
0.0 0.0 0.0
0.0 0.0 0.0
0.0 0.0 0.0
0.0 0.0 0.0
0.0 0.0 0.0
0.0 0.0 0.0
0.0 0.0 0.0
0.0 0.0 0.0
0.0 0.0 0.0
0.314379614365 0.05237412598 0.0
0.577870916059 0.038794412231 0.0
0.776003958918 0.0266389163666 0.0
0.94004375876 0.0142621485111 0.0
1.05678471489 0.00940279680746 0.0
1.1053788808 0.00819569274902 0.0
1.13490991503 0.00347544803223 0.0
1.15467445157 0.00159588576779 0.0
1.16161324325 0.000947650276176 0.0
1.1644066612 0.000268936831745 0.0
1.16518897292 4.64333408316e-05 0.0
1.16519807985 -1.15321135741e-05 0.0
1.16530690306 -1.25489623618e-05 0.0
1.16508241514 -4.47027129528e-05 0.0
1.16534642791 -8.96439794845e-05 0.0
1.16479668444 -6.31045292963e-05 0.0
1.16480316029 1.18258630447e-05 0.0
1.16480890246 -2.17408567945e-05 0.0
1.16482494028 1.08371245247e-05 0.0
1.16481421128 -3.89019143674e-06 0.0
1.16484205694 1.9973164815e-05 0.0
1.16468794171 -1.00399925083e-06 0.0
1.16506487221 -7.55753144421e-06 0.0
1.16445559852 -5.34457173732e-06 0.0
1.16492124697 -4.82355507734e-05 0.0
1.16448852761 1.93642456712e-05 0.0
1.16429969354 -2.7781123919e-05 0.0
1.16470357473 -2.93331395288e-05 0.0
1.16436157141 3.38405366232e-05 0.0
1.16428556534 -4.0815932101e-05 0.0
1.16426341069 1.97718675084e-05 0.0
1.16434072415 9.98301832032e-06 0.0
1.16416394079 -3.95513565522e-06 0.0
1.16450857208 -1.15082862047e-05 0.0
1.16416955761 6.7402299667e-07 0.0
1.16419861687 3.8810826822e-05 0.0
1.16433397114 -5.94458935379e-05 0.0
1.16439740043 3.26931518172e-05 0.0
1.16405449961 2.11776445461e-06 0.0
1.1644070763 -2.63432727878e-05 0.0
1.16402693922 8.4060825158e-06 0.0
1.16402670154 2.37041209603e-05 0.0
1.16409454818 -4.29727150182e-05 0.0
1.16430592136 -2.30939715e-05 0.0
1.16410046279 7.11402298441e-05 0.0
1.16406707584 -6.88594732588e-05 0.0
1.1640902947 -1.6334159927e-06 0.0
1.16440478212 -1.78496002914e-06 0.0
1.16385765157 2.38642940176e-05 0.0
1.16444501161 1.71144138821e-06 0.0
1.16318851096 3.39062178419e-06 0.0
1.16447410804 -2.07503826435e-05 0.0
1.16405556401 -1.23497642279e-05 0.0
1.16399365928 2.70076880475e-05 0.0
1.16394755263 -3.63990958859e-05 0.0
1.1639774312 -3.25062906037e-05 0.0
1.16417393081 -4.66170806832e-05 0.0
1.16350846965 4.97328477327e-05 0.0
1.1640398931 -5.62212972268e-05 0.0
1.16272165119 3.61919617819e-06 0.0
1.16402661551 3.74761217702e-05 0.0
1.16373708832 -6.75902810271e-05 0.0
1.16358486919 7.45890860365e-05 0.0
1.163603241 -4.45396029156e-05 0.0
1.16363329803 -3.50295776151e-05 0.0
1.16389358953 3.33234331726e-05 0.0
1.16330898304 8.35017973618e-06 0.0
1.16383900385 -4.59365034002e-05 0.0
1.16260714115 -1.1410843073e-06 0.0
1.16387402181 3.05312261332e-05 0.0
1.16360526393 -2.18658756912e-05 0.0
1.16342542384 3.93800091246e-05 0.0
1.16340694013 -4.95101257031e-05 0.0
1.16340979347 -4.35025850491e-05 0.0
1.16363424446 1.12542158868e-05 0.0
1.16304925572 3.80983364936e-06 0.0
1.16361846965 -4.53241285565e-06 0.0
1.16245019661 -7.43702099492e-06 0.0
1.16371029665 -1.24132795224e-06 0.0
1.16340145664 -2.74057630559e-05 0.0
1.16323901656 4.21439526941e-05 0.0
1.16322830245 -1.54445206579e-05 0.0
1.16342578069 -6.02401226469e-06 0.0
1.16323435583 -5.68026107637e-05 0.0
1.16342768779 -4.73529013445e-08 0.0
1.16331229331 5.31803250171e-05 0.0
1.16354848461 5.656433752e-06 0.0
1.16328883342 -1.99745706908e-05 0.0
1.1629471994 -2.14553203244e-05 0.0
1.16350618919 -2.89409823718e-05 0.0
1.16296706579 4.10605904696e-05 0.0
1.16291154669 -4.60228303284e-05 0.0
1.16291106721 4.24427320885e-05 0.0
1.16299619444 -2.69440192482e-05 0.0
1.1634919953 -3.32661298232e-06 0.0
1.162772323 -4.73441658875e-05 0.0
1.16259697742 -1.2864954461e-05 0.0
1.16266290126 -2.27749409674e-06 0.0
1.16273372185 -8.67532280744e-08 0.0
1.16301112343 2.61079995074e-06 0.0
1.1625564572 3.63309303483e-05 0.0
1.162872575 -6.01061794479e-06 0.0
1.16313914603 -1.58864265052e-05 0.0
1.16292322096 -3.64734251776e-05 0.0
1.16310377406 1.13568771184e-05 0.0
1.16287257877 5.95990384702e-05 0.0
1.16299365906 8.07788263967e-06 0.0
1.16306126257 2.60778065398e-05 0.0
1.16315037585 5.58565899304e-05 0.0
1.16357526506 -9.31054823939e-07 0.0
1.1636893974 -3.01653927374e-06 0.0
1.16247174499 1.35633401442e-05 0.0
1.16366534513 -3.8000719586e-06 0.0
1.16317132439 -2.35820856086e-06 0.0
1.16375123376 1.92283521385e-05 0.0
1.16351075687 1.04402557355e-05 0.0
1.16348415516 5.94048524408e-05 0.0
1.16346873934 -6.6879201965e-05 0.0
1.16357256721 2.16887760062e-05 0.0
1.1638586189 -1.15851350379e-05 0.0
1.16259139886 9.70244821669e-07 0.0
1.1638126085 3.28148871171e-05 0.0
1.16328498276 -1.0620455052e-05 0.0
1.16393305325 -4.55834148049e-06 0.0
1.16367798124 3.1319034134e-05 0.0
1.16365606193 5.94883482152e-05 0.0
1.16369388643 -5.56076580779e-05 0.0
1.16390380618 4.74339872229e-05 0.0
1.16422696251 -1.92207819605e-05 0.0
1.16291844462 1.33177657582e-07 0.0
1.16422508289 3.5595654796e-05 0.0
1.16372024663 -1.19683238181e-05 0.0
1.16433362346 -2.74098891145e-05 0.0
1.16416524419 8.29703287945e-05 0.0
1.16424060109 6.6424497743e-05 0.0
1.1643174806 -7.65146482229e-05 0.0
1.16450546812 9.60035618896e-05 0.0
1.16487736973 -1.58014796761e-05 0.0
1.16371080453 -5.23594795645e-06 0.0
1.16497581965 6.84813374018e-05 0.0
1.16452401775 -2.32707852598e-05 0.0
1.16517695787 2.11717374139e-05 0.0
1.16485281377 2.549468876e-06 0.0
1.16466102136 3.61217299454e-06 0.0
1.1644057839 -9.14496596007e-05 0.0
1.16414497611 -0.000108701420936 0.0
1.16395771082 -0.000214621996231 0.0
1.16203937121 4.45519862736e-05 0.0
1.16254415275 -0.000326281093598 0.0
1.16083350926 -0.000194689338563 0.0
1.15994857523 -0.000520501392537 0.0
1.15775572091 -0.000440041520054 0.0
1.15604853964 -0.000378053526904 0.0
1.15330046247 -0.000572936803534 0.0
1.15054121876 -0.000982649028646 0.0
1.1472680381 -0.00060627007702 0.0
1.14268982625 -0.000781868512546 0.0
1.13895174314 -0.00100218156232 0.0
1.13284189303 -0.0016394205894 0.0
1.12692868262 -0.000989079250445 0.0
1.12083441862 -0.00188784353769 0.0
1.1155625581 -0.00154109722652 0.0
1.10815684965 -0.00140106030067 0.0
1.10255313212 -0.00148025020967 0.0
1.09459788489 -0.00215471711178 0.0
1.08657672174 -0.00128518229155 0.0
1.0799681562 -0.00149958805222 0.0
1.0743919939 -0.00135515638484 0.0
1.0665772186 -0.00116261494436 0.0
1.06125029987 -0.00155329379042 0.0
1.05362976643 -0.0024071982331 0.0
1.04623788454 -0.000897251643455 0.0
1.04062526398 -0.000802400430422 0.0
1.03509409558 -0.00246619009421 0.0
1.02746145368 -0.00068830857946 0.0
1.02191750453 -0.00189112973751 0.0
1.01601691277 -0.000758160791456 0.0
1.01153975809 -0.00107438401557 0.0
1.00789149988 -0.000878663465875 0.0
1.00415643941 -0.000623910123289 0.0
1.00227753464 -0.000271730628268 0.0
1.00069488621 -0.000269488605919 0.0
1.0 0.0 0.0
1.0 0.0 0.0
1.0 0.0 0.0
1.0 0.0 0.0
1.0 0.0 0.0
1.0 0.0 0.0
1.0 0.0 0.0
1.0 0.0 0.0
1.0 0.0 0.0
1.0 0.0 0.0
1.0 0.0 0.0
1.0 0.0 0.0
1.0 0.0 0.0
1.0 0.0 0.0
1.0 0.0 0.0
1.0 0.0 0.0
1.1588465274 -0.000608586893765 0.0
1.0756947814 -0.0666398801141 0.0
1.1586960231 -0.000588156419063 0.0
1.15932988802 -0.0558139762585 0.0
1.1583928381 0.000307048212148 0.0
1.17225273822 -0.0221153435865 0.0
1.1607401253 -0.0032651557007 0.0
1.15893140334 -0.000614581260038 0.0
1.16127190356 0.00140747318577 0.0
1.15890274394 -0.000460611243473 0.0
1.15830847 0.000874065775275 0.0
1.15910872705 -0.000513816083791 0.0
1.15885393138 -0.000204359422135 0.0
1.15870738311 -0.000202707122656 0.0
1.15918200635 0.000427659229881 0.0
1.15814733102 0.000216004819758 0.0
1.15693967871 0.00076171196613 0.0
1.15455204203 -0.000935021395104 0.0
1.08270009182 -0.000958004816363 0.0
1.17686473413 -0.0871157605007 0.0
1.16557078329 -0.000298144994148 0.0
1.07948334693 -0.0382991951266 0.0
1.08060212396 -0.000871375570087 0.0
1.12989257455 -0.0313357368725 0.0
1.16410429743 0.000402567392755 0.0
1.0794573833 0.00143881614185 0.0
1.08590409884 -0.00229082379531 0.0
1.07961742026 0.000775884393661 0.0
1.08017992878 -0.000797380172368 0.0
1.16419116191 5.88090386818e-05 0.0
1.16454584583 -4.64005322235e-05 0.0
1.07883128606 0.00326120279538 0.0
1.0796269075 0.000366713426106 0.0
1.07966566798 0.000627494081402 0.0
1.08000032552 -0.000212349272445 0.0
1.07988189661 0.000936472089414 0.0
1.07525072462 -0.000111796490217 0.0
1.07565055744 0.001959468703 0.0
1.16420713116 -0.000133754870798 0.0
1.16413969897 0.000118978021449 0.0
1.16451227103 8.69234752401e-05 0.0
1.16528743668 0.000603823838051 0.0
1.16655942361 -0.000557206747003 0.0
1.16469321648 -0.00022436439068 0.0
1.16551278539 -4.69700579851e-05 0.0
1.16410404843 -0.00869478670172 0.0
1.140087547 -0.0310685212749 0.0
1.16499742571 -1.60417564485e-07 0.0
1.16439854256 -0.000281315748502 0.0
1.16336843528 -0.000182908711758 0.0
1.05059440209 -0.00246991343347 0.0
1.05080727206 0.000726432471282 0.0
1.1001299374 -0.114388407175 0.0
1.0430550026 0.00160984342423 0.0
1.1665062471 -0.000168109516493 0.0
1.01678575002 -0.0256475949137 0.0
0.981635494808 -0.00108024120353 0.0
1.075287628 -0.0488061161334 0.0
0.962975676646 -0.00114140731526 0.0
0.974589213295 -0.00534882551821 0.0
1.16413024757 0.000205872003826 0.0
1.16418094791 2.67059225889e-05 0.0
1.16401480548 -7.95479931632e-05 0.0
1.16396681118 0.000303525732739 0.0
0.981125558737 -0.00179977225995 0.0
0.982251738247 -0.00145908587242 0.0
0.978236594374 0.00275294383102 0.0
0.98047042272 -0.00253809165475 0.0
0.980779163571 0.00118282894914 0.0
0.980252929679 -0.00245448248823 0.0
0.981010066797 7.28511305836e-05 0.0
0.980717562452 -0.00234289722808 0.0
0.980878898323 0.0010461967075 0.0
1.16454272671 -0.000107588312385 0.0
1.16434700436 0.000200995614693 0.0
1.16428046387 -0.000104829982245 0.0
1.16585725992 0.000564741510313 0.0
1.1644298042 -0.000126932237308 0.0
0.973846657803 0.00197917375927 0.0
0.97372130186 -0.000367712236656 0.0
1.16499405279 -0.00245010466789 0.0
1.16484858444 -0.00010370686879 0.0
1.16523356161 -0.000167510803317 0.0
1.10006943365 -0.0288397832334 0.0
1.16510102425 7.02727978155e-05 0.0
1.15330296818 -0.0157196463536 0.0
0.980457616454 0.00199639477837 0.0
1.17470460053 -0.112512783782 0.0
1.16570320053 -0.000291653263556 0.0
1.042613545 -0.0281499213744 0.0
0.928259077801 0.00149395599723 0.0
1.16381338225 -0.00027325893141 0.0
1.01983639781 -0.0440277449533 0.0
1.15709489199 3.37858781537e-05 0.0
1.15745115762 -0.000909036831505 0.0
1.15600785816 -0.000345962162633 0.0
1.15723026429 0.000894452503564 0.0
1.15900926106 -5.11745042336e-05 0.0
1.15758312663 9.18179473756e-05 0.0
1.15812574888 -0.000220322846398 0.0
1.15839759778 8.10421457104e-05 0.0
1.15889623942 0.00021740805825 0.0
1.17445913852 -0.0365905564223 0.0
1.1589364912 0.000246784773597 0.0
1.16648892162 -0.0106427470515 0.0
1.15866765238 0.00138483493308 0.0
1.1587927584 0.000306159529245 0.0
1.16117111051 -1.65428860197e-05 0.0
1.15861901966 -0.000189237117231 0.0
1.13502938729 -0.0625120602736 0.0
1.15890590059 -0.000660491279043 0.0
1.16511176823 3.84870293194e-05 0.0
1.1135728691 -0.0196836488063 0.0
1.16478103551 -3.15421207501e-05 0.0
1.16460471656 2.53636490762e-05 0.0
1.16476225297 4.20730665067e-05 0.0
1.16477323202 7.61824740451e-06 0.0
1.16509958131 0.000111772430704 0.0
1.1650226108 -0.0001898112083 0.0
1.16640167364 0.000158563806012 0.0
1.16539108508 -1.43392448615e-05 0.0
1.16298088725 -0.00373756074973 0.0
1.13640510475 -0.0164449609775 0.0
1.16556873879 -5.03510202149e-05 0.0
0.806161504705 0.00214342978169 0.0
0.937263153601 -0.0478893317904 0.0
0.797248626048 5.94624637818e-05 0.0
0.798560832753 0.00139841677128 0.0
0.78974403756 0.00161695424151 0.0
0.802694962858 -0.00772489588872 0.0
0.837029917541 -0.0188409268064 0.0
0.794998685353 0.00101809086483 0.0
0.793139605627 0.000995328600284 0.0
0.798838448113 0.000289434709178 0.0
0.796625092927 -9.33019960038e-05 0.0
0.799900264723 -0.000671006830971 0.0
0.796024957589 0.000823773534018 0.0
0.797411307977 0.00139654061606 0.0
0.793757606124 0.00147542460554 0.0
0.796095210717 0.000924897349416 0.0
0.796979950389 -0.000659354868333 0.0
0.798369543512 0.00120623690143 0.0
0.793362163769 0.00122787201765 0.0
0.794565527518 -0.000111227305827 0.0
0.797313714187 -0.000386001590121 0.0
0.79638674663 0.000614239308777 0.0
0.796246386712 -0.00019053117938 0.0
0.796246944677 -0.000386303822631 0.0
0.798210785268 -0.00171653361301 0.0
0.79857545065 0.00255472253152 0.0
1.16418831322 -5.46556934768e-05 0.0
1.15472972142 -0.00049244997891 0.0
1.11559266423 -0.0724411180201 0.0
1.16371285769 -1.5493013694e-05 0.0
1.15457667971 -0.000889886885646 0.0
1.15712046497 -0.00125958163123 0.0
1.15453238941 0.000232383398617 0.0
1.15582080919 0.00188387909497 0.0
1.15335740984 -0.000326169298183 0.0
1.15303436638 2.39031329657e-05 0.0
1.1586409295 -0.00467980503295 0.0
1.155122131 -0.000206862604666 0.0
1.15346329387 0.000132755728185 0.0
1.15402379739 -0.000344136827677 0.0
1.15379057057 0.000725064743329 0.0
1.17737221006 -0.0481998079047 0.0
1.1542263757 -0.000267027916462 0.0
0.761745371786 0.00332226484851 0.0
0.763113014139 -0.000415745131101 0.0
1.16530341641 -8.62420396717e-05 0.0
1.07611203737 -0.0196500197592 0.0
1.12530041086 -0.153875611176 0.0
0.797734146008 0.00187764873514 0.0
0.782928151798 0.00813936887962 0.0
0.987010449442 -0.0704220096604 0.0
1.16512260135 -5.05572777222e-05 0.0
1.15656329256 -0.00729249863484 0.0
1.1649577333 -3.04639974917e-05 0.0
1.16586688584 -0.000720833279734 0.0
1.16465038069 1.71508226899e-05 0.0
1.16544734037 0.000295913738623 0.0
1.1664110229 -3.20320290766e-05 0.0
1.00461908401 -0.00884682007834 0.0
1.16436864392 7.06828121805e-06 0.0
1.16465118953 8.65561947654e-06 0.0
1.16410374183 3.16571569614e-05 0.0
1.16442939472 -4.9998035088e-05 0.0
1.16416762824 -7.95707448709e-05 0.0
1.16390607339 0.000149491062488 0.0
1.16387005107 0.000244503794942 0.0
1.16489144719 -0.000266174722141 0.0
1.12952284373 -0.0376647535822 0.0
0.767101424927 0.00207229091312 0.0
0.770747902393 -0.00308582271181 0.0
1.16534720351 -7.33790868739e-05 0.0
1.16570897072 -0.00477431406593 0.0
1.16560442381 -0.000176844260931 0.0
1.05625677366 -0.0191350366085 0.0
1.16488434118 7.89553267105e-05 0.0
1.15583188571 -0.0271762526656 0.0
1.1644220643 -0.000195446281114 0.0
1.16659763785 0.000481531093895 0.0
1.16449460756 -6.52196109198e-05 0.0
1.16449238125 0.000638421085314 0.0
1.16410949926 5.78814755408e-05 0.0
1.16408404971 -2.02078964553e-05 0.0
1.16463006988 6.2783005198e-05 0.0
0.755834715006 0.00211247151111 0.0
0.731906566732 0.00253037452361 0.0
1.16364432817 -0.000184673929991 0.0
1.16434861593 -7.31375235105e-05 0.0
0.743186724553 0.00441372662214 0.0
1.11752882644 -0.121685162346 0.0
1.16586830748 -0.000167972261475 0.0
1.02194853233 -0.015272549145 0.0
1.16416453046 -0.000231777472516 0.0
1.16309201912 0.000306984637642 0.0
1.16363979568 -0.000509927505129 0.0
1.16333815857 -0.000455226260497 0.0
1.1642012178 0.000374105339508 0.0
1.16424950405 -2.93909162476e-05 0.0
1.16402186955 -2.27464530682e-06 0.0
1.16381380216 0.000250930787018 0.0
1.16409806675 -0.00028895896047 0.0
1.11550940639 -0.00062714736308 0.0
1.1816515755 -0.0716340934087 0.0
1.16581798511 0.00100572119608 0.0
1.16418359769 -0.000154616564142 0.0
1.16622791981 -0.00198554801103 0.0
1.16477615114 -0.000385066474634 0.0
1.11405149858 -0.000169422905362 0.0
1.11387993505 -0.000991169477331 0.0
1.11434160221 0.000281670698874 0.0
1.11345531196 0.00124910428761 0.0
1.1455484133 -0.0246686659978 0.0
1.1119399858 0.001565027514 0.0
1.12738662142 -0.009074259021 0.0
1.11321398836 0.00112898909207 0.0
1.11440952327 0.000417051787942 0.0
1.11438393678 0.000458503430134 0.0
1.11434921255 0.000134733096037 0.0
1.11791196333 0.000754414121528 0.0
1.1166862626 -0.000168819680838 0.0
1.06736568539 -0.047173317206 0.0
1.1656948481 -0.000516386231744 0.0
1.11505631418 -0.000364379793569 0.0
1.11758324196 -0.00147439668143 0.0
1.14612914285 0.000141037161445 0.0
1.06248620159 -0.0735354656018 0.0
1.02126962778 -0.0537755307847 0.0
1.11390166269 2.09242354143e-05 0.0
1.00518075381 -0.0169048449325 0.0
1.16645782006 -8.48346693089e-05 0.0
1.16591353331 -0.000323849059483 0.0
1.03731807064 -0.0392068629581 0.0
1.16315934492 0.000594237661551 0.0
1.16378003456 -1.77102450177e-05 0.0
1.11755569535 0.00265502708514 0.0
1.11837336343 -0.000824381614588 0.0
1.16453365221 0.000181031414654 0.0
1.16471875779 -0.017264281436 0.0
1.11574323838 -0.0438646656383 0.0
1.16467918555 -0.000397779677039 0.0
1.09189296406 -0.00247485559925 0.0
1.09276505048 -0.000727810649524 0.0
1.09098534797 -0.00181442916471 0.0
1.09098336899 0.00379753708606 0.0
1.09126156402 -0.00215547137755 0.0
1.09142908762 0.00115384414456 0.0
1.09148563629 -0.000777785033076 0.0
1.091980004 0.000561761378974 0.0
1.09217643738 0.00116845682209 0.0
1.09521512577 -0.00358924477323 0.0
1.09284065189 0.000944105616027 0.0
1.14993989162 -0.0461357582733 0.0
1.08222018129 -0.00167237250733 0.0
1.15697433968 -0.000109110810232 0.0
1.15853487925 -0.000120116975002 0.0
1.1274530191 -0.0882099636205 0.0
1.1337693592 -0.000185199474378 0.0
1.1211803543 -0.0136462977923 0.0
1.16493860668 -0.000110158536444 0.0
1.08252606154 0.00137852681147 0.0
1.12986268369 -0.109077678519 0.0
1.09632604575 -0.0142430500846 0.0
1.16505133711 -5.9986374546e-05 0.0
1.16495370154 0.000121154753283 0.0
1.16522456578 7.16942667965e-05 0.0
1.16496963704 -4.45363324469e-05 0.0
1.16525058432 -7.92801064109e-05 0.0
1.16563670755 0.000101946717575 0.0
1.1653767543 -8.89879456335e-05 0.0
1.16630097011 0.000225357392897 0.0
1.16450492942 -0.00149549470205 0.0
1.16527439954 -6.18694837447e-05 0.0
1.14413005481 -0.0095302166738 0.0
1.16502081544 8.45875577718e-06 0.0
0.635401556742 -0.00147987388088 0.0
0.705716950157 -0.0235320151859 0.0
0.621179483545 0.00489235127743 0.0
0.624068356736 -0.00240537139604 0.0
0.571142274653 -0.00538530016321 0.0
0.567838769618 0.00107939394446 0.0
0.631417209206 -0.00310408819431 0.0
0.63392515174 -0.00123045617739 0.0
0.636283286213 5.63486296066e-05 0.0
0.641309987234 -0.00296445720005 0.0
0.64219940973 -0.00154154637377 0.0