# vtk DataFile Version 2.0
2D Simulation Python
ASCII
DATASET UNSTRUCTURED_GRID
FIELD FieldData 1
NODES 1 2 int
11134 7299

POINTS 11134 double
0.0 1.0 0.0
1.725 1.0 0.0
8.275 1.0 0.0
10.0 1.0 0.0
10.0 0.0 0.0
0.0 0.0 0.0
0.05948275862057954 1.0 0.0
0.1189655172411507 1.0 0.0
0.1784482758617532 1.0 0.0
0.2379310344823185 1.0 0.0
0.2974137931028384 1.0 0.0
0.3568965517233564 1.0 0.0
0.4163793103438745 1.0 0.0
0.475862068964385 1.0 0.0
0.535344827584889 1.0 0.0
0.5948275862053855 1.0 0.0
0.654310344825882 1.0 0.0
0.7137931034463786 1.0 0.0
0.7732758620668752 1.0 0.0
0.8327586206874149 1.0 0.0
0.8922413793081027 1.0 0.0
0.9517241379289384 1.0 0.0
1.011206896549752 1.0 0.0
1.070689655170612 1.0 0.0
1.130172413791474 1.0 0.0
1.189655172412335 1.0 0.0
1.249137931033183 1.0 0.0
1.308620689654105 1.0 0.0
1.368103448274985 1.0 0.0
1.427586206895818 1.0 0.0
1.487068965516628 1.0 0.0
1.546551724137449 1.0 0.0
1.606034482758285 1.0 0.0
1.665517241379139 1.0 0.0
1.784545454545345 1.0 0.0
1.844090909090676 1.0 0.0
1.903636363635991 1.0 0.0
1.963181818181336 1.0 0.0
2.022727272726716 1.0 0.0
2.082272727272112 1.0 0.0
2.141818181817408 1.0 0.0
2.201363636362702 1.0 0.0
2.260909090908037 1.0 0.0
2.320454545453433 1.0 0.0
2.379999999998759 1.0 0.0
2.439545454544053 1.0 0.0
2.499090909089358 1.0 0.0
2.558636363634754 1.0 0.0
2.618181818180109 1.0 0.0
2.677727272725404 1.0 0.0
2.737272727270631 1.0 0.0
2.796818181815906 1.0 0.0
2.856363636361191 1.0 0.0
2.915909090906408 1.0 0.0
2.975454545451703 1.0 0.0
3.034999999997049 1.0 0.0
3.094545454542377 1.0 0.0
3.154090909087591 1.0 0.0
3.21363636363288 1.0 0.0
3.273181818178196 1.0 0.0
3.332727272723555 1.0 0.0
3.392272727268849 1.0 0.0
3.451818181814208 1.0 0.0
3.511363636359524 1.0 0.0
3.570909090904812 1.0 0.0
3.630454545450026 1.0 0.0
3.689999999995355 1.0 0.0
3.749545454540702 1.0 0.0
3.809090909085996 1.0 0.0
3.868636363631291 1.0 0.0
3.928181818176585 1.0 0.0
3.987727272721861 1.0 0.0
4.047272727267021 1.0 0.0
4.106818181812208 1.0 0.0
4.166363636357625 1.0 0.0
4.225909090903122 1.0 0.0
4.285454545448432 1.0 0.0
4.34499999999356 1.0 0.0
4.404545454538917 1.0 0.0
4.464090909084414 1.0 0.0
4.523636363629791 1.0 0.0
4.583181818174936 1.0 0.0
4.642727272720208 1.0 0.0
4.702272727265705 1.0 0.0
4.761818181811142 1.0 0.0
4.821363636356348 1.0 0.0
4.880909090901557 1.0 0.0
4.940454545446997 1.0 0.0
4.999999999992493 1.0 0.0
5.059545454538018 1.0 0.0
5.119090909083717 1.0 0.0
5.17863636362933 1.0 0.0
5.238181818174827 1.0 0.0
5.297727272720321 1.0 0.0
5.357272727265989 1.0 0.0
5.416818181811662 1.0 0.0
5.476363636357158 1.0 0.0
5.535909090902654 1.0 0.0
5.595454545448262 1.0 0.0
5.65499999999396 1.0 0.0
5.714545454539491 1.0 0.0
5.774090909085032 1.0 0.0
5.83363636363093 1.0 0.0
5.893181818176673 1.0 0.0
5.952727272722171 1.0 0.0
6.012272727267668 1.0 0.0
6.071818181813491 1.0 0.0
6.131363636359353 1.0 0.0
6.190909090904849 1.0 0.0
6.250454545450346 1.0 0.0
6.309999999996052 1.0 0.0
6.369545454541951 1.0 0.0
6.429090909087529 1.0 0.0
6.488636363633026 1.0 0.0
6.548181818178611 1.0 0.0
6.60772727272451 1.0 0.0
6.667272727270209 1.0 0.0
6.726818181815705 1.0 0.0
6.786363636361202 1.0 0.0
6.845909090907071 1.0 0.0
6.905454545452889 1.0 0.0
6.964999999998385 1.0 0.0
7.024545454543881 1.0 0.0
7.084090909089378 1.0 0.0
7.143636363634876 1.0 0.0
7.20318181818037 1.0 0.0
7.262727272725868 1.0 0.0
7.322272727271365 1.0 0.0
7.381818181816859 1.0 0.0
7.441363636362357 1.0 0.0
7.500909090907854 1.0 0.0
7.560454545453348 1.0 0.0
7.619999999998846 1.0 0.0
7.679545454544343 1.0 0.0
7.739090909089839 1.0 0.0
7.798636363635335 1.0 0.0
7.858181818180832 1.0 0.0
7.917727272726328 1.0 0.0
7.977272727271824 1.0 0.0
8.036818181817441 1.0 0.0
8.09636363636334 1.0 0.0
8.155909090909008 1.0 0.0
8.215454545454504 1.0 0.0
8.334482758620055 1.0 0.0
8.393965517240051 1.0 0.0
8.453448275859904 1.0 0.0
8.51293103448045 1.0 0.0
8.572413793100301 1.0 0.0
8.631896551720153 1.0 0.0
8.6913793103407 1.0 0.0
8.750862068961245 1.0 0.0
8.810344827581792 1.0 0.0
8.869827586202339 1.0 0.0
8.929310344822884 1.0 0.0
8.988793103443431 1.0 0.0
9.048275862063978 1.0 0.0
9.107758620684523 1.0 0.0
9.16724137930507 1.0 0.0
9.226724137925617 1.0 0.0
9.286206896546162 1.0 0.0
9.345689655167401 1.0 0.0
9.405172413788595 1.0 0.0
9.46465517240963 1.0 0.0
9.524137931030667 1.0 0.0
9.583620689651704 1.0 0.0
9.643103448272907 1.0 0.0
9.702586206894148 1.0 0.0
9.762068965515388 1.0 0.0
9.821551724136627 1.0 0.0
9.881034482757867 1.0 0.0
9.940517241378963 1.0 0.0
10.0 0.9411764705879904 0.0
10.0 0.882352941175982 0.0
10.0 0.8235294117645425 0.0
10.0 0.764705882353186 0.0
10.0 0.7058823529418295 0.0
10.0 0.6470588235304731 0.0
10.0 0.5882352941191167 0.0
10.0 0.5294117647077601 0.0
10.0 0.4705882352960771 0.0
10.0 0.4117647058840672 0.0
10.0 0.3529411764720576 0.0
10.0 0.2941176470600479 0.0
10.0 0.2352941176480381 0.0
10.0 0.1764705882360285 0.0
10.0 0.1176470588240187 0.0
10.0 0.05882352941200908 0.0
9.940119760479043 0.0 0.0
9.880239520958083 0.0 0.0
9.820359281437126 0.0 0.0
9.760479041916167 0.0 0.0
9.70059880239521 0.0 0.0
9.640718562874252 0.0 0.0
9.580838323353293 0.0 0.0
9.520958083832335 0.0 0.0
9.461077844311376 0.0 0.0
9.401197604790418 0.0 0.0
9.34131736526946 0.0 0.0
9.281437125748502 0.0 0.0
9.221556886227543 0.0 0.0
9.161676646706585 0.0 0.0
9.101796407185628 0.0 0.0
9.041916167664668 0.0 0.0
8.982035928143711 0.0 0.0
8.922155688622752 0.0 0.0
8.862275449101794 0.0 0.0
8.802395209580837 0.0 0.0
8.742514970059878 0.0 0.0
8.68263473053892 0.0 0.0
8.622754491017961 0.0 0.0
8.562874251497004 0.0 0.0
8.502994011976044 0.0 0.0
8.443113772455087 0.0 0.0
8.38323353293413 0.0 0.0
8.32335329341317 0.0 0.0
8.263473053892213 0.0 0.0
8.203592814371254 0.0 0.0
8.143712574850296 0.0 0.0
8.083832335329337 0.0 0.0
8.02395209580838 0.0 0.0
7.964071856287422 0.0 0.0
7.904191616766464 0.0 0.0
7.844311377245505 0.0 0.0
7.784431137724548 0.0 0.0
7.72455089820359 0.0 0.0
7.664670658682631 0.0 0.0
7.604790419161674 0.0 0.0
7.544910179640715 0.0 0.0
7.485029940119757 0.0 0.0
7.425149700598799 0.0 0.0
7.36526946107784 0.0 0.0
7.305389221556883 0.0 0.0
7.245508982035925 0.0 0.0
7.185628742514966 0.0 0.0
7.125748502994009 0.0 0.0
7.065868263473051 0.0 0.0
7.005988023952092 0.0 0.0
6.946107784431135 0.0 0.0
6.886227544910177 0.0 0.0
6.826347305389219 0.0 0.0
6.766467065868261 0.0 0.0
6.706586826347303 0.0 0.0
6.646706586826344 0.0 0.0
6.586826347305387 0.0 0.0
6.526946107784428 0.0 0.0
6.46706586826347 0.0 0.0
6.407185628742512 0.0 0.0
6.347305389221554 0.0 0.0
6.287425149700596 0.0 0.0
6.227544910179638 0.0 0.0
6.16766467065868 0.0 0.0
6.107784431137722 0.0 0.0
6.047904191616764 0.0 0.0
5.988023952095805 0.0 0.0
5.928143712574848 0.0 0.0
5.868263473053889 0.0 0.0
5.808383233532932 0.0 0.0
5.748502994011973 0.0 0.0
5.688622754491016 0.0 0.0
5.628742514970057 0.0 0.0
5.568862275449099 0.0 0.0
5.508982035928141 0.0 0.0
5.449101796407183 0.0 0.0
5.389221556886225 0.0 0.0
5.329341317365267 0.0 0.0
5.269461077844309 0.0 0.0
5.209580838323351 0.0 0.0
5.149700598802393 0.0 0.0
5.089820359281434 0.0 0.0
5.029940119760477 0.0 0.0
4.970059880239518 0.0 0.0
4.91017964071856 0.0 0.0
4.850299401197602 0.0 0.0
4.790419161676644 0.0 0.0
4.730538922155686 0.0 0.0
4.670658682634729 0.0 0.0
4.610778443113769 0.0 0.0
4.550898203592812 0.0 0.0
4.491017964071854 0.0 0.0
4.431137724550896 0.0 0.0
4.371257485029938 0.0 0.0
4.31137724550898 0.0 0.0
4.251497005988022 0.0 0.0
4.191616766467064 0.0 0.0
4.131736526946106 0.0 0.0
4.071856287425147 0.0 0.0
4.01197604790419 0.0 0.0
3.952095808383231 0.0 0.0
3.892215568862274 0.0 0.0
3.832335329341316 0.0 0.0
3.772455089820358 0.0 0.0
3.712574850299399 0.0 0.0
3.652694610778441 0.0 0.0
3.592814371257483 0.0 0.0
3.532934131736526 0.0 0.0
3.473053892215567 0.0 0.0
3.41317365269461 0.0 0.0
3.353293413173652 0.0 0.0
3.293413173652693 0.0 0.0
3.233532934131736 0.0 0.0
3.173652694610777 0.0 0.0
3.113772455089819 0.0 0.0
3.053892215568861 0.0 0.0
2.994011976047903 0.0 0.0
2.934131736526945 0.0 0.0
2.874251497005988 0.0 0.0
2.814371257485028 0.0 0.0
2.754491017964071 0.0 0.0
2.694610778443113 0.0 0.0
2.634730538922155 0.0 0.0
2.574850299401197 0.0 0.0
2.514970059880238 0.0 0.0
2.455089820359281 0.0 0.0
2.395209580838323 0.0 0.0
2.335329341317365 0.0 0.0
2.275449101796406 0.0 0.0
2.215568862275448 0.0 0.0
2.15568862275449 0.0 0.0
2.095808383233532 0.0 0.0
2.035928143712574 0.0 0.0
1.976047904191615 0.0 0.0
1.916167664670658 0.0 0.0
1.8562874251497 0.0 0.0
1.796407185628741 0.0 0.0
1.736526946107784 0.0 0.0
1.676646706586826 0.0 0.0
1.616766467065867 0.0 0.0
1.55688622754491 0.0 0.0
1.49700598802395 0.0 0.0
1.437125748502995 0.0 0.0
1.377245508982035 0.0 0.0
1.317365269461078 0.0 0.0
1.257485029940119 0.0 0.0
1.19760479041916 0.0 0.0
1.137724550898204 0.0 0.0
1.077844311377245 0.0 0.0
1.017964071856287 0.0 0.0
0.958083832335328 0.0 0.0
0.8982035928143723 0.0 0.0
0.8383233532934131 0.0 0.0
0.7784431137724539 0.0 0.0
0.7185628742514965 0.0 0.0
0.658682634730539 0.0 0.0
0.5988023952095816 0.0 0.0
0.5389221556886223 0.0 0.0
0.4790419161676631 0.0 0.0
0.4191616766467074 0.0 0.0
0.3592814371257482 0.0 0.0
0.2994011976047908 0.0 0.0
0.2395209580838316 0.0 0.0
0.1796407185628741 0.0 0.0
0.1197604790419167 0.0 0.0
0.05988023952095922 0.0 0.0
0.0 0.0588235294116454 0.0
0.0 0.1176470588233168 0.0
0.0 0.1764705882349203 0.0
0.0 0.2352941176465135 0.0
0.0 0.2941176470581066 0.0
0.0 0.3529411764696997 0.0
0.0 0.4117647058812929 0.0
0.0 0.4705882352928861 0.0
0.0 0.5294117647046425 0.0
0.0 0.5882352941165623 0.0
0.0 0.6470588235284821 0.0
0.0 0.7058823529404019 0.0
0.0 0.7647058823523216 0.0
0.0 0.8235294117642414 0.0
0.0 0.8823529411761613 0.0
0.0 0.941176470588081 0.0
9.496671432578891 0.5021202775764965 0.0
0.503328567417594 0.502120277573701 0.0
8.960949321310713 0.5028360638807292 0.0
1.039050678683441 0.5028360638815292 0.0
8.421726050444478 0.5013914029598455 0.0
1.578273949553219 0.5013914029599852 0.0
2.110012838156869 0.501717680037117 0.0
[...]
POINT_DATA 11134
VECTORS vector double
1.0 0.0 0.0
0.0 0.0 0.0
0.0 0.0 0.0
0.0 0.0 0.0
0.0 0.0 0.0
1.0 0.0 0.0
0.0 0.0 0.0
0.0 0.0 0.0
0.0 0.0 0.0
0.0 0.0 0.0
0.0 0.0 0.0
0.0 0.0 0.0
0.0 0.0 0.0
0.0 0.0 0.0
0.0 0.0 0.0
0.0 0.0 0.0
0.0 0.0 0.0
0.0 0.0 0.0
0.0 0.0 0.0
0.0 0.0 0.0
0.0 0.0 0.0
0.0 0.0 0.0
0.0 0.0 0.0
0.0 0.0 0.0
0.0 0.0 0.0
0.0 0.0 0.0
0.0 0.0 0.0
0.0 0.0 0.0
0.0 0.0 0.0
0.0 0.0 0.0
0.0 0.0 0.0
0.0 0.0 0.0
0.0 0.0 0.0
0.0 0.0 0.0
0.0 0.0 0.0
0.0 0.0 0.0
0.0 0.0 0.0
0.0 0.0 0.0
0.0 0.0 0.0
0.0 0.0 0.0
0.0 0.0 0.0
0.0 0.0 0.0
0.0 0.0 0.0
0.0 0.0 0.0
0.0 0.0 0.0
0.0 0.0 0.0
0.0 0.0 0.0
0.0 0.0 0.0
0.0 0.0 0.0
0.0 0.0 0.0
0.0 0.0 0.0
0.0 0.0 0.0
0.0 0.0 0.0
0.0 0.0 0.0
0.0 0.0 0.0
0.0 0.0 0.0
0.0 0.0 0.0
0.0 0.0 0.0
0.0 0.0 0.0
0.0 0.0 0.0
0.0 0.0 0.0
0.0 0.0 0.0
0.0 0.0 0.0
0.0 0.0 0.0
0.0 0.0 0.0
0.0 0.0 0.0
0.0 0.0 0.0
0.0 0.0 0.0
0.0 0.0 0.0
0.0 0.0 0.0
0.0 0.0 0.0
0.0 0.0 0.0
0.0 0.0 0.0
0.0 0.0 0.0
0.0 0.0 0.0
0.0 0.0 0.0
0.0 0.0 0.0
0.0 0.0 0.0
0.0 0.0 0.0
0.0 0.0 0.0
0.0 0.0 0.0
0.0 0.0 0.0
0.0 0.0 0.0
0.0 0.0 0.0
0.0 0.0 0.0
0.0 0.0 0.0
0.0 0.0 0.0
0.0 0.0 0.0
0.0 0.0 0.0
0.0 0.0 0.0
0.0 0.0 0.0
0.0 0.0 0.0
0.0 0.0 0.0
0.0 0.0 0.0
0.0 0.0 0.0
0.0 0.0 0.0
0.0 0.0 0.0
0.0 0.0 0.0
0.0 0.0 0.0
0.0 0.0 0.0
0.0 0.0 0.0
0.0 0.0 0.0
0.0 0.0 0.0
0.0 0.0 0.0
0.0 0.0 0.0
0.0 0.0 0.0
0.0 0.0 0.0
0.0 0.0 0.0
0.0 0.0 0.0
0.0 0.0 0.0
0.0 0.0 0.0
0.0 0.0 0.0
0.0 0.0 0.0
0.0 0.0 0.0
0.0 0.0 0.0
0.0 0.0 0.0
0.0 0.0 0.0
0.0 0.0 0.0
0.0 0.0 0.0
0.0 0.0 0.0
0.0 0.0 0.0
0.0 0.0 0.0
0.0 0.0 0.0
0.0 0.0 0.0
0.0 0.0 0.0
0.0 0.0 0.0
0.0 0.0 0.0
0.0 0.0 0.0
0.0 0.0 0.0
0.0 0.0 0.0
0.0 0.0 0.0
0.0 0.0 0.0
0.0 0.0 0.0
0.0 0.0 0.0
0.0 0.0 0.0
0.0 0.0 0.0
0.0 0.0 0.0
0.0 0.0 0.0
0.0 0.0 0.0
0.0 0.0 0.0
0.0 0.0 0.0
0.0 0.0 0.0
0.0 0.0 0.0
0.0 0.0 0.0
0.0 0.0 0.0
0.0 0.0 0.0
0.0 0.0 0.0
0.0 0.0 0.0
0.0 0.0 0.0
0.0 0.0 0.0
0.0 0.0 0.0
0.0 0.0 0.0
0.0 0.0 0.0
0.0 0.0 0.0
0.0 0.0 0.0
0.0 0.0 0.0
0.0 0.0 0.0
0.0 0.0 0.0
0.0 0.0 0.0
0.0 0.0 0.0
0.0 0.0 0.0
0.0 0.0 0.0
0.0 0.0 0.0
0.0 0.0 0.0
0.0 0.0 0.0
0.0 0.0 0.0
0.0 0.0 0.0
0.0 0.0 0.0
0.0 0.0 0.0
0.0 0.0 0.0
0.0 0.0 0.0
0.376755661282 0.0621106389769 0.0
0.683988776126 0.0451341993717 0.0
0.91490790208 0.0314490022446 0.0
1.11242234095 0.0175891887346 0.0
1.26178485641 0.0127736723443 0.0
1.32723357021 0.012865361824 0.0
1.37267851358 0.00515506967562 0.0
1.39955086622 0.00171069774184 0.0
1.39861288695 -0.00139646750541 0.0
1.37686335448 -0.00590001526682 0.0
1.33082289165 -0.00995084708036 0.0
1.24814360114 -0.020173558053 0.0
1.1279111895 -0.022027006149 0.0
0.947390089009 -0.0300018549957 0.0
0.711643390447 -0.0265924586676 0.0
0.373032356239 -0.0592459784995 0.0
0.0 0.0 0.0
0.0 0.0 0.0
0.0 0.0 0.0
0.0 0.0 0.0
0.0 0.0 0.0
0.0 0.0 0.0
0.0 0.0 0.0
0.0 0.0 0.0
0.0 0.0 0.0
0.0 0.0 0.0
0.0 0.0 0.0
0.0 0.0 0.0
0.0 0.0 0.0
0.0 0.0 0.0
0.0 0.0 0.0
0.0 0.0 0.0
0.0 0.0 0.0
0.0 0.0 0.0
0.0 0.0 0.0
0.0 0.0 0.0
0.0 0.0 0.0
0.0 0.0 0.0
0.0 0.0 0.0
0.0 0.0 0.0
0.0 0.0 0.0
0.0 0.0 0.0
0.0 0.0 0.0
0.0 0.0 0.0
0.0 0.0 0.0
0.0 0.0 0.0
0.0 0.0 0.0
0.0 0.0 0.0
0.0 0.0 0.0
0.0 0.0 0.0
0.0 0.0 0.0
0.0 0.0 0.0
0.0 0.0 0.0
0.0 0.0 0.0
0.0 0.0 0.0
0.0 0.0 0.0
0.0 0.0 0.0
0.0 0.0 0.0
0.0 0.0 0.0
0.0 0.0 0.0
0.0 0.0 0.0
0.0 0.0 0.0
0.0 0.0 0.0
0.0 0.0 0.0
0.0 0.0 0.0
0.0 0.0 0.0
0.0 0.0 0.0
0.0 0.0 0.0
0.0 0.0 0.0
0.0 0.0 0.0
0.0 0.0 0.0
0.0 0.0 0.0
0.0 0.0 0.0
0.0 0.0 0.0
0.0 0.0 0.0
0.0 0.0 0.0
0.0 0.0 0.0
0.0 0.0 0.0
0.0 0.0 0.0
0.0 0.0 0.0
0.0 0.0 0.0
0.0 0.0 0.0
0.0 0.0 0.0
0.0 0.0 0.0
0.0 0.0 0.0
0.0 0.0 0.0
0.0 0.0 0.0
0.0 0.0 0.0
0.0 0.0 0.0
0.0 0.0 0.0
0.0 0.0 0.0
0.0 0.0 0.0
0.0 0.0 0.0
0.0 0.0 0.0
0.0 0.0 0.0
0.0 0.0 0.0
0.0 0.0 0.0
0.0 0.0 0.0
0.0 0.0 0.0
0.0 0.0 0.0
0.0 0.0 0.0
0.0 0.0 0.0
0.0 0.0 0.0
0.0 0.0 0.0
0.0 0.0 0.0
0.0 0.0 0.0
0.0 0.0 0.0
0.0 0.0 0.0
0.0 0.0 0.0
0.0 0.0 0.0
0.0 0.0 0.0
0.0 0.0 0.0
0.0 0.0 0.0
0.0 0.0 0.0
0.0 0.0 0.0
0.0 0.0 0.0
0.0 0.0 0.0
0.0 0.0 0.0
0.0 0.0 0.0
0.0 0.0 0.0
0.0 0.0 0.0
0.0 0.0 0.0
0.0 0.0 0.0
0.0 0.0 0.0
0.0 0.0 0.0
0.0 0.0 0.0
0.0 0.0 0.0
0.0 0.0 0.0
0.0 0.0 0.0
0.0 0.0 0.0
0.0 0.0 0.0
0.0 0.0 0.0
0.0 0.0 0.0
0.0 0.0 0.0
0.0 0.0 0.0
0.0 0.0 0.0
0.0 0.0 0.0
0.0 0.0 0.0
0.0 0.0 0.0
0.0 0.0 0.0
0.0 0.0 0.0
0.0 0.0 0.0
0.0 0.0 0.0
0.0 0.0 0.0
0.0 0.0 0.0
0.0 0.0 0.0
0.0 0.0 0.0
0.0 0.0 0.0
0.0 0.0 0.0
0.0 0.0 0.0
0.0 0.0 0.0
0.0 0.0 0.0
0.0 0.0 0.0
0.0 0.0 0.0
0.0 0.0 0.0
0.0 0.0 0.0
0.0 0.0 0.0
0.0 0.0 0.0
0.0 0.0 0.0
0.0 0.0 0.0
0.0 0.0 0.0
0.0 0.0 0.0
0.0 0.0 0.0
0.0 0.0 0.0
0.0 0.0 0.0
0.0 0.0 0.0
0.0 0.0 0.0
0.0 0.0 0.0
0.0 0.0 0.0
0.0 0.0 0.0
0.0 0.0 0.0
0.0 0.0 0.0
0.0 0.0 0.0
0.0 0.0 0.0
0.0 0.0 0.0
0.0 0.0 0.0
0.0 0.0 0.0
0.0 0.0 0.0
0.0 0.0 0.0
0.0 0.0 0.0
0.0 0.0 0.0
0.0 0.0 0.0
1.0 0.0 0.0
1.0 0.0 0.0
1.0 0.0 0.0
1.0 0.0 0.0
1.0 0.0 0.0
1.0 0.0 0.0
1.0 0.0 0.0
1.0 0.0 0.0
1.0 0.0 0.0
1.0 0.0 0.0
1.0 0.0 0.0
1.0 0.0 0.0
1.0 0.0 0.0
1.0 0.0 0.0
1.0 0.0 0.0
1.0 0.0 0.0
1.4017907856 0.00105831587452 0.0
1.14179039196 -0.000919372483945 0.0
1.40026825771 -0.000584069818044 0.0
1.30096793525 -0.00120448558331 0.0
1.40212629144 -0.00142798883214 0.0
1.38150447348 -0.000602274679399 0.0
1.40130651685 -0.00107739047347 0.0
1.40318214813 -0.00124676244278 0.0
1.40357127219 0.00048638503906 0.0
1.40285907111 0.000392943097461 0.0
1.40286100254 0.00085410251917 0.0
1.40193774956 0.00187470279922 0.0
1.40231946845 -0.000893898901618 0.0
1.40010259926 0.00211728629489 0.0
1.4022928388 -0.000913228151288 0.0
1.39786769956 -0.000255877741046 0.0
1.39986491674 -0.000678204464922 0.0
1.39652549929 -0.00139664192393 0.0
1.29482228259 -0.00106938516208 0.0
1.25248513099 -0.0465769749919 0.0
1.29579508672 -0.00240846101705 0.0
1.24966021269 0.0491452001218 0.0
1.29200942137 -0.00106454308172 0.0
1.29202643547 -0.0172277734765 0.0
1.29294775671 0.000801122823505 0.0
1.29294621338 0.00050873842956 0.0
1.29358972401 -0.00384062238765 0.0
1.29190752522 0.00151076457423 0.0
1.29463846712 -0.0014201841646 0.0
1.2950374796 -0.000476562966938 0.0
1.28866604737 0.000154343908607 0.0
1.2917057765 0.00298480335418 0.0
1.29365748652 3.97711398724e-05 0.0
1.29321644029 0.0017953501882 0.0
1.2919226325 0.00137704377615 0.0
1.29365415675 0.000435844313294 0.0
1.28450355209 -0.000561243829263 0.0
1.28755665748 0.00154574757633 0.0
1.29127480762 0.000720438426709 0.0
1.2899174962 0.0016691414296 0.0
1.28961243647 -0.000816740507791 0.0
1.29182634018 0.00263058262287 0.0
1.29154237045 0.00197525588746 0.0
1.28844590764 -0.00214762314319 0.0
1.29963138047 -0.000552178357835 0.0
1.30156528904 0.00097758989675 0.0
1.2874948431 0.0163289088132 0.0
1.28899464851 0.00134562147638 0.0
1.28262223982 -0.00165389424287 0.0
1.28216210446 -0.0018017529261 0.0
1.24967527603 -0.00301400004171 0.0
1.25093068725 0.00113887493106 0.0
1.11343151159 -0.0876727693023 0.0
1.24305893083 0.00210777191759 0.0
1.26694687099 -3.81257066922e-05 0.0
1.10532134435 0.0777772208524 0.0
1.16186255461 -0.000508855222856 0.0
1.20099000759 -0.0314102931412 0.0
1.13930177681 -0.00191376183205 0.0
1.14875957222 -0.00791154505759 0.0
1.1565848932 -0.00494354752332 0.0
1.15772638481 -0.00483521390977 0.0
1.16255491719 0.00582645547264 0.0
1.14664569055 0.00303551428857 0.0
1.16284785524 -0.00163559278976 0.0
1.16577055048 -0.00218905869762 0.0
1.15998809264 0.00230843537789 0.0
1.16390355165 -0.00307590088997 0.0
1.16206231572 0.00219144799359 0.0
1.16282795011 -0.00224927930467 0.0
1.1635178685 0.000582244300081 0.0
1.16024784951 -0.00199448910065 0.0
1.16273911274 0.000877462378394 0.0
1.15130432531 -0.00459873322467 0.0
1.15948106937 -0.00360139139601 0.0
1.1586439084 0.0057844935668 0.0
1.16081739327 -0.00375391614038 0.0
1.15646022003 0.00498698199713 0.0
1.15180346661 0.00199474585245 0.0
1.15264148675 -0.00110667169663 0.0
1.16556938118 -0.00114011934232 0.0
1.16103252623 0.000553725337288 0.0
1.17757673378 0.000946599314864 0.0
1.20908235959 0.0306951330128 0.0
1.16969245576 -0.00228736669558 0.0
1.17863388686 0.00794434877984 0.0
1.16133026187 0.0028793612931 0.0
1.21560128096 -0.0796174141692 0.0
1.14436816378 0.00297274822139 0.0
1.21204107553 0.0813821976125 0.0
1.09542136041 0.00259202604254 0.0
1.15090589801 -0.00138034013493 0.0
1.03591483805 -0.00491927802811 0.0
1.40181815953 0.000506955600961 0.0
1.39917477055 -0.00131102033739 0.0
1.39951713322 -0.000806286782472 0.0
1.40130702097 -0.000347268005746 0.0
1.40246308376 -0.00125470497832 0.0
1.39784362319 0.000363637307329 0.0
1.40299714649 5.27912305281e-05 0.0
1.4010734803 0.00252524358565 0.0
1.40155437715 -0.00034404089392 0.0
1.36120328346 -0.000508954677724 0.0
1.40317422483 -0.00166915786535 0.0
1.39384388055 -7.4889421848e-05 0.0
1.40380397025 0.00134284177932 0.0
1.40291057775 0.00117697679287 0.0
1.4041288196 0.000437916140659 0.0
1.40368903013 -0.000504490528758 0.0
1.25261791609 0.00024300028728 0.0
1.40029562739 0.000147736632028 0.0
0.950273055805 -0.00294822549795 0.0
0.986951593188 0.017966740735 0.0
0.9557688225 -0.00350915328777 0.0
0.960856241767 0.00502831051013 0.0
0.954978406684 -0.00401859705253 0.0
0.956914911435 0.00445246793391 0.0
0.957153511775 -0.00321191169097 0.0
0.956921186109 0.00342415691998 0.0
0.960187062696 -0.00299107404467 0.0
0.960546296037 -0.00279775378295 0.0
0.963025783362 0.00241399600891 0.0
0.972889842508 0.00848255179025 0.0
0.955685873829 0.000404872051199 0.0
0.95113475634 0.0023882492255 0.0
1.04279435277 -0.0337729425611 0.0
0.941012414291 -0.000353341401702 0.0
0.946115225781 -0.00128870840962 0.0
0.930988233826 0.00183876886645 0.0
0.950343617136 -0.00986168386608 0.0
0.977119714409 -0.0156205019969 0.0
0.936999052922 0.00143779702581 0.0
0.93835104549 0.00104057175757 0.0
0.944722467406 0.000167068852974 0.0
0.941331170761 0.000152941522732 0.0
0.945105857047 -0.000802912850824 0.0
0.939079768836 0.000756271451142 0.0
0.943449682653 0.00149647851378 0.0
0.936891980458 0.000792516214635 0.0
0.941294269109 0.000627938446081 0.0
0.941783024664 -0.000146287160859 0.0
0.941432087506 0.00202729268819 0.0
0.937161979253 0.000203695129307 0.0
0.938299467594 -0.000872759274978 0.0
0.94091180553 0.000111169365323 0.0
0.940551274181 0.00138219582363 0.0
0.941029200571 -0.000383551790144 0.0
0.941119980926 -0.00091295910556 0.0
0.940005094586 -0.00186233002616 0.0
0.942164728129 0.00229605192023 0.0
0.940610187282 -0.000429523805699 0.0
1.39843707032 0.000284394876036 0.0
1.1995529751 -0.00963377955614 0.0
0.934165263866 -0.00103823692195 0.0
1.40110099282 -0.00148062725117 0.0
1.40093395507 9.55061680773e-05 0.0
1.40047163741 7.24332983538e-05 0.0
1.40139650435 0.00188209023246 0.0
1.39757799337 0.00176405320696 0.0
1.39948427668 0.00122822172798 0.0
1.39634060037 -0.00120774144184 0.0
1.40109486962 -0.00169350820207 0.0
1.39563098638 0.000922106277483 0.0
1.39932441219 -0.000585882399114 0.0
1.39927401884 -0.000120995506538 0.0
1.3356327326 -0.00545313817887 0.0
1.39774740518 -0.000792655297456 0.0
0.898819796374 0.00337323108562 0.0
0.900838439006 -0.0009580127761 0.0
0.920841778381 0.00375446639785 0.0
1.01494294378 0.0270464394299 0.0
1.1299117606 -0.1429424989 0.0
0.942131322934 0.00207945320989 0.0
0.923338121249 0.00982989625197 0.0
1.06403431888 -0.0526990175181 0.0
0.919004237046 -0.00605391581911 0.0
0.923345559642 0.00638335937966 0.0
0.927320907522 -0.000534275584733 0.0
0.93215740823 2.73429272711e-05 0.0
0.927751073176 -0.002996633528 0.0
0.931093391666 0.00357005982071 0.0
0.944511619312 -0.00228822811144 0.0
1.13318000955 0.142783699208 0.0
0.932715526882 -0.00349689781651 0.0
0.930708028405 0.00395331219415 0.0
0.922229583452 -0.000973061694457 0.0
0.934332104694 0.00376047483624 0.0
0.912447966105 0.00474160105459 0.0
0.934838115907 0.00407208595081 0.0
0.907418334536 -0.00466495040405 0.0
1.33202188718 -0.00188645998195 0.0
1.30398416013 0.0236432917467 0.0
0.903698882758 0.00255234745492 0.0
0.90693239392 -0.00398682263441 0.0
1.34219604108 -0.00306964423879 0.0
1.34302824945 0.00211984135383 0.0
0.90856620637 0.00250343633137 0.0
1.05099434224 0.0441054377137 0.0
1.33052960417 0.000320607824104 0.0
1.32418288938 0.0104755822093 0.0
1.34004916573 -0.000552606969095 0.0
1.34271183425 0.00115281401741 0.0
1.34045545257 0.00112992337812 0.0
1.34200077444 0.00129545139595 0.0
1.34127886647 0.00210342269617 0.0
1.34048276765 -1.18910129102e-05 0.0
1.34196228889 0.000192107212242 0.0
0.891145858347 0.0027101986372 0.0
0.862953181787 0.00340191969449 0.0
0.870274742817 -0.000603191171502 0.0
0.899157985541 0.000540523108073 0.0
0.877029414576 0.00513087318762 0.0
1.14602226232 -0.10420697841 0.0
0.883892941933 0.0026218506735 0.0
1.14898084624 0.0999836379973 0.0
1.34449181795 -0.000229663920475 0.0
1.3446187198 -0.00222052501027 0.0
1.35534534325 -0.000678164877024 0.0
1.35501753536 -0.00116477739586 0.0
1.34948371956 -0.000582015313787 0.0
1.34914825223 -0.000996224571914 0.0
1.34937954353 0.00235545963496 0.0
1.35044458376 0.000692510349224 0.0
1.34953198405 0.00234418258794 0.0
1.33997060682 0.000112108915433 0.0
1.28335917407 -0.0309759358794 0.0
1.35188037508 0.00118410404828 0.0
1.34938501082 0.000502754751184 0.0
1.35003621798 0.000448935401903 0.0
1.34830263608 -0.00127035656898 0.0
1.34118427144 -0.00117655620943 0.0
1.34111925797 -0.000596410466044 0.0
1.33919738677 0.00213863527522 0.0
1.33873066467 0.00144282465162 0.0
1.33090557802 -0.0145815091917 0.0
1.33790876888 0.000502631680001 0.0
1.33622710259 -0.00726599948116 0.0
1.34057880824 0.000998324839357 0.0
1.3415847142 0.00130584782685 0.0
1.34051307158 0.000139957849983 0.0
1.34272270916 4.27799484555e-05 0.0
1.34222613654 0.000734809122392 0.0
1.34360026604 -0.0010716975133 0.0
1.20112492371 0.0421053794356 0.0
1.35590987285 0.00193356279061 0.0
1.33891826243 4.07333517393e-05 0.0
1.34388015171 -0.00156220056555 0.0
1.38861069419 0.000901250916507 0.0
1.094850372 -0.0251106347025 0.0
1.02651178408 -0.0347855313217 0.0
1.34276102804 0.000187320292651 0.0
1.02403051568 0.0344606463311 0.0
1.33653491782 -0.000128454157325 0.0
1.33363070354 -0.000140439176705 0.0
1.14326395754 0.0569235137667 0.0
1.35877033686 -0.000905968697431 0.0
1.3588304976 -0.000476091625084 0.0
1.34573849107 0.00193097611755 0.0
1.3431502733 -0.00143219148417 0.0
1.36001875986 -0.00198676839923 0.0
1.35506013747 0.00576410790263 0.0
1.28590664534 0.025958265408 0.0
1.35982794697 -0.000230026265931 0.0
1.31090874615 -0.00335015331165 0.0
1.30921707865 0.000623030437294 0.0
1.30973638825 -0.00263609712006 0.0
1.30820425784 0.00366514392729 0.0
1.30828297242 -0.00115159092943 0.0
1.3093815547 0.00281874402789 0.0
1.3061188115 -0.000785393810844 0.0
1.31005907483 0.00091457041265 0.0
1.30948692968 0.000828129620251 0.0
1.31037491904 -0.00432792688453 0.0
1.31216159643 0.000406796420126 0.0
1.28954127228 -0.0233687821344 0.0
1.29333793653 -0.00177089136013 0.0
1.39912326889 -0.00118544194849 0.0
1.39875925767 -0.0005564978956 0.0
1.18367318421 -0.0355737669098 0.0
1.36900672403 0.000675310165478 0.0
0.768233697196 0.00992683463361 0.0
0.744175047541 -0.00254069113096 0.0
1.29559330075 0.00243976374296 0.0
1.15850113478 -0.0704822352028 0.0
0.768193087563 0.0106253508158 0.0
0.71811956392 -0.000289216453513 0.0
0.69474243592 0.000813292812541 0.0
0.689384278298 0.000916976086159 0.0
0.694649232716 0.00238631360705 0.0
0.690483853345 0.00277717528417 0.0
0.690307490182 0.00134021481308 0.0
0.68762371515 0.00252650200497 0.0
0.691227519034 0.00109561015432 0.0
0.661704218688 0.00454525736402 0.0
0.658362315369 -0.00114529871004 0.0
0.741029385041 0.00266598481613 0.0
0.733924781761 0.00087695336385 0.0
0.75195085792 -0.00138977507838 0.0
0.818901107488 -0.0185487504732 0.0
0.735294006042 0.00522574844216 0.0
0.73780768929 -0.00273099415906 0.0
0.676370098212 -0.00648375871718 0.0
0.681195728929 -0.000560292149779 0.0
0.74871289897 -0.00331605822195 0.0
0.751879489409 -0.00148818451952 0.0
0.755291395707 -0.000207964665474 0.0
0.76074747834 -0.0033197855775 0.0
0.759447221831 -0.00160853549065 0.0
0.761099570396 -0.00220958239291 0.0
0.761136886839 -0.00226582527513 0.0
0.759583074942 -0.00197424285078 0.0
0.760195887413 -0.00222477286865 0.0
0.749524552632 -0.000551692929496 0.0
0.743345161484 -0.000445676061291 0.0
1.37955461645 0.00107279891981 0.0
1.07573541729 0.0318536869674 0.0
0.666944055015 -0.00175506797148 0.0
0.860352264222 -0.030597127677 0.0
0.699744576015 0.0016698965288 0.0
0.896532456845 0.0407483525255 0.0
1.34624337303 0.000247599450066 0.0
1.34808509144 -0.0038584016252 0.0
1.34608112383 -0.000679015993157 0.0
1.30192708676 -0.0251978946255 0.0
1.23927167364 -0.0013458347144 0.0
1.23279241676 -0.0605916875702 0.0
0.685376265934 0.00275214564112 0.0
1.34863064846 2.292271932e-05 0.0
1.35018005616 0.00024427689083 0.0
1.34863514719 0.000460222983334 0.0
1.34857111309 0.00128312347985 0.0
1.34902846811 -0.00140240177139 0.0
1.34590998977 0.00153573646885 0.0
1.34862521488 -0.00134971773666 0.0
0.704199984749 0.000302722375448 0.0
0.670173900144 0.00431636723715 0.0
1.07807063724 -0.122046037837 0.0
0.669629365999 -0.00405742389323 0.0
1.07961017309 0.120230634073 0.0
0.659345414344 -0.0003778042043 0.0
0.682809685649 -0.00381800585936 0.0
0.646710028868 0.00973145413468 0.0
0.645834168018 -0.00835652479621 0.0
0.689680987979 0.00729672858375 0.0
0.694620944307 -0.00554669581955 0.0
0.649900490092 -0.00795247283646 0.0
0.647516938406 0.0104311597266 0.0
0.649165655379 -0.00756361667577 0.0
0.650477868728 0.0101308108324 0.0
0.649697463481 0.00974281040947 0.0
0.641015219845 -0.00592441376667 0.0
0.644676244005 0.00365837786546 0.0
0.64081691613 0.00645959421159 0.0
0.646402177757 -0.00832023278907 0.0
0.639956712777 0.00791039041894 0.0
0.643393413287 -0.00912330075122 0.0
0.642833779608 0.00824182235198 0.0
0.64216598598 -0.00932664503052 0.0
0.650218923626 -0.00615375931395 0.0
1.39429744256 -0.000285170216743 0.0
1.38869465756 -0.000921615956195 0.0
1.34249898785 0.009124682598 0.0
1.389964162 0.000392603693403 0.0
1.39165477353 0.000945522791475 0.0
1.39041051507 0.00169277363761 0.0
1.38914450964 0.00140171939661 0.0
1.39168854601 0.00252562246438 0.0
1.39008225918 -0.000307453665576 0.0
1.39083621245 -0.00225910872969 0.0
1.38669962711 0.00142540828835 0.0
1.39127675018 0.00134141020667 0.0
1.39027200058 -0.00181276096094 0.0
1.2286642096 0.0145872876145 0.0
1.3938735288 0.000316783905113 0.0
1.24467221772 0.000434035719827 0.0
1.24898577961 0.0408484198283 0.0
1.23922877205 -0.000407871606745 0.0
1.24422901471 0.00361461312875 0.0
1.24245966936 0.000394959407161 0.0
1.23869203085 -0.00138396511609 0.0
1.36820849849 -0.00187025359482 0.0
1.35867937124 -0.00710394182415 0.0
0.576965569839 -0.000299559015186 0.0
0.616212254176 -0.0055990923567 0.0
0.654752169641 0.000444056737128 0.0
0.624243608858 0.00243769631697 0.0
0.590124904202 0.00369465451454 0.0
0.600941709124 -0.00518169325355 0.0
0.578400323886 0.00189277912008 0.0
0.580637417942 -0.00105823572099 0.0
0.578594278085 0.000733633898331 0.0
0.58131838524 -0.000207369280552 0.0
0.578054882767 0.00119154486513 0.0
0.579027993469 -0.000129638882603 0.0
0.572430410006 0.0012673483271 0.0
0.571492319816 -0.00126915522349 0.0
0.570669534519 0.00156207787305 0.0
1.22527679068 0.000156392166567 0.0
1.2156151363 -0.00140761683653 0.0
0.646957132996 -0.00832943004908 0.0
0.647937026495 0.00946785053201 0.0
1.01147534215 -0.00659167576514 0.0
1.39954954168 0.000431102038546 0.0
1.36817208935 0.00118880071159 0.0
1.37043597488 -7.80478028126e-05 0.0
0.594307988683 -0.00906466881728 0.0
1.36824282787 0.00289411568923 0.0
1.36954733649 -8.24283028992e-05 0.0
1.36794472778 0.00317006202803 0.0
1.36836239304 -0.00170053345984 0.0
1.36833687108 -0.0014651831842 0.0
0.601499888271 -0.00603237175719 0.0
0.594928151451 0.00358827376953 0.0
0.598594243645 -0.00517719810169 0.0
0.59672538716 0.00347297042638 0.0
0.607552797099 0.00333328424809 0.0
0.668112261585 0.00621899260537 0.0
0.647095549957 0.000621325306695 0.0
0.649214629378 -0.00189222574721 0.0
0.651041475795 0.00208629425114 0.0
0.764089915182 -0.0194658089345 0.0
0.633706237841 -6.88971789001e-05 0.0
0.63135264634 -0.00225554389904 0.0