# vtk DataFile Version 2.0
2D Simulation Python
ASCII
DATASET UNSTRUCTURED_GRID
FIELD FieldData 1
NODES 1 2 int
11134 7299

POINTS 11134 double
0.0 1.0 0.0
1.725 1.0 0.0
8.275 1.0 0.0
10.0 1.0 0.0
10.0 0.0 0.0
0.0 0.0 0.0
0.05948275862057954 1.0 0.0
0.1189655172411507 1.0 0.0
0.1784482758617532 1.0 0.0
0.2379310344823185 1.0 0.0
0.2974137931028384 1.0 0.0
0.3568965517233564 1.0 0.0
0.4163793103438745 1.0 0.0
0.475862068964385 1.0 0.0
0.535344827584889 1.0 0.0
0.5948275862053855 1.0 0.0
0.654310344825882 1.0 0.0
0.7137931034463786 1.0 0.0
0.7732758620668752 1.0 0.0
0.8327586206874149 1.0 0.0
0.8922413793081027 1.0 0.0
0.9517241379289384 1.0 0.0
1.011206896549752 1.0 0.0
1.070689655170612 1.0 0.0
1.130172413791474 1.0 0.0
1.189655172412335 1.0 0.0
1.249137931033183 1.0 0.0
1.308620689654105 1.0 0.0
1.368103448274985 1.0 0.0
1.427586206895818 1.0 0.0
1.487068965516628 1.0 0.0
1.546551724137449 1.0 0.0
1.606034482758285 1.0 0.0
1.665517241379139 1.0 0.0
1.784545454545345 1.0 0.0
1.844090909090676 1.0 0.0
1.903636363635991 1.0 0.0
1.963181818181336 1.0 0.0
2.022727272726716 1.0 0.0
2.082272727272112 1.0 0.0
2.141818181817408 1.0 0.0
2.201363636362702 1.0 0.0
2.260909090908037 1.0 0.0
2.320454545453433 1.0 0.0
2.379999999998759 1.0 0.0
2.439545454544053 1.0 0.0
2.499090909089358 1.0 0.0
2.558636363634754 1.0 0.0
2.618181818180109 1.0 0.0
2.677727272725404 1.0 0.0
2.737272727270631 1.0 0.0
2.796818181815906 1.0 0.0
2.856363636361191 1.0 0.0
2.915909090906408 1.0 0.0
2.975454545451703 1.0 0.0
3.034999999997049 1.0 0.0
3.094545454542377 1.0 0.0
3.154090909087591 1.0 0.0
3.21363636363288 1.0 0.0
3.273181818178196 1.0 0.0
3.332727272723555 1.0 0.0
3.392272727268849 1.0 0.0
3.451818181814208 1.0 0.0
3.511363636359524 1.0 0.0
3.570909090904812 1.0 0.0
3.630454545450026 1.0 0.0
3.689999999995355 1.0 0.0
3.749545454540702 1.0 0.0
3.809090909085996 1.0 0.0
3.868636363631291 1.0 0.0
3.928181818176585 1.0 0.0
3.987727272721861 1.0 0.0
4.047272727267021 1.0 0.0
4.106818181812208 1.0 0.0
4.166363636357625 1.0 0.0
4.225909090903122 1.0 0.0
4.285454545448432 1.0 0.0
4.34499999999356 1.0 0.0
4.404545454538917 1.0 0.0
4.464090909084414 1.0 0.0
4.523636363629791 1.0 0.0
4.583181818174936 1.0 0.0
4.642727272720208 1.0 0.0
4.702272727265705 1.0 0.0
4.761818181811142 1.0 0.0
4.821363636356348 1.0 0.0
4.880909090901557 1.0 0.0
4.940454545446997 1.0 0.0
4.999999999992493 1.0 0.0
5.059545454538018 1.0 0.0
5.119090909083717 1.0 0.0
5.17863636362933 1.0 0.0
5.238181818174827 1.0 0.0
5.297727272720321 1.0 0.0
5.357272727265989 1.0 0.0
5.416818181811662 1.0 0.0
5.476363636357158 1.0 0.0
5.535909090902654 1.0 0.0
5.595454545448262 1.0 0.0
5.65499999999396 1.0 0.0
5.714545454539491 1.0 0.0
5.774090909085032 1.0 0.0
5.83363636363093 1.0 0.0
5.893181818176673 1.0 0.0
5.952727272722171 1.0 0.0
6.012272727267668 1.0 0.0
6.071818181813491 1.0 0.0
6.131363636359353 1.0 0.0
6.190909090904849 1.0 0.0
6.250454545450346 1.0 0.0
6.309999999996052 1.0 0.0
6.369545454541951 1.0 0.0
6.429090909087529 1.0 0.0
6.488636363633026 1.0 0.0
6.548181818178611 1.0 0.0
6.60772727272451 1.0 0.0
6.667272727270209 1.0 0.0
6.726818181815705 1.0 0.0
6.786363636361202 1.0 0.0
6.845909090907071 1.0 0.0
6.905454545452889 1.0 0.0
6.964999999998385 1.0 0.0
7.024545454543881 1.0 0.0
7.084090909089378 1.0 0.0
7.143636363634876 1.0 0.0
7.20318181818037 1.0 0.0
7.262727272725868 1.0 0.0
7.322272727271365 1.0 0.0
7.381818181816859 1.0 0.0
7.441363636362357 1.0 0.0
7.500909090907854 1.0 0.0
7.560454545453348 1.0 0.0
7.619999999998846 1.0 0.0
7.679545454544343 1.0 0.0
7.739090909089839 1.0 0.0
7.798636363635335 1.0 0.0
7.858181818180832 1.0 0.0
7.917727272726328 1.0 0.0
7.977272727271824 1.0 0.0
8.036818181817441 1.0 0.0
8.09636363636334 1.0 0.0
8.155909090909008 1.0 0.0
8.215454545454504 1.0 0.0
8.334482758620055 1.0 0.0
8.393965517240051 1.0 0.0
8.453448275859904 1.0 0.0
8.51293103448045 1.0 0.0
8.572413793100301 1.0 0.0
8.631896551720153 1.0 0.0
8.6913793103407 1.0 0.0
8.750862068961245 1.0 0.0
8.810344827581792 1.0 0.0
8.869827586202339 1.0 0.0
8.929310344822884 1.0 0.0
8.988793103443431 1.0 0.0
9.048275862063978 1.0 0.0
9.107758620684523 1.0 0.0
9.16724137930507 1.0 0.0
9.226724137925617 1.0 0.0
9.286206896546162 1.0 0.0
9.345689655167401 1.0 0.0
9.405172413788595 1.0 0.0
9.46465517240963 1.0 0.0
9.524137931030667 1.0 0.0
9.583620689651704 1.0 0.0
9.643103448272907 1.0 0.0
9.702586206894148 1.0 0.0
9.762068965515388 1.0 0.0
9.821551724136627 1.0 0.0
9.881034482757867 1.0 0.0
9.940517241378963 1.0 0.0
10.0 0.9411764705879904 0.0
10.0 0.882352941175982 0.0
10.0 0.8235294117645425 0.0
10.0 0.764705882353186 0.0
10.0 0.7058823529418295 0.0
10.0 0.6470588235304731 0.0
10.0 0.5882352941191167 0.0
10.0 0.5294117647077601 0.0
10.0 0.4705882352960771 0.0
10.0 0.4117647058840672 0.0
10.0 0.3529411764720576 0.0
10.0 0.2941176470600479 0.0
10.0 0.2352941176480381 0.0
10.0 0.1764705882360285 0.0
10.0 0.1176470588240187 0.0
10.0 0.05882352941200908 0.0
9.940119760479043 0.0 0.0
9.880239520958083 0.0 0.0
9.820359281437126 0.0 0.0
9.760479041916167 0.0 0.0
9.70059880239521 0.0 0.0
9.640718562874252 0.0 0.0
9.580838323353293 0.0 0.0
9.520958083832335 0.0 0.0
9.461077844311376 0.0 0.0
9.401197604790418 0.0 0.0
9.34131736526946 0.0 0.0
9.281437125748502 0.0 0.0
9.221556886227543 0.0 0.0
9.161676646706585 0.0 0.0
9.101796407185628 0.0 0.0
9.041916167664668 0.0 0.0
8.982035928143711 0.0 0.0
8.922155688622752 0.0 0.0
8.862275449101794 0.0 0.0
8.802395209580837 0.0 0.0
8.742514970059878 0.0 0.0
8.68263473053892 0.0 0.0
8.622754491017961 0.0 0.0
8.562874251497004 0.0 0.0
8.502994011976044 0.0 0.0
8.443113772455087 0.0 0.0
8.38323353293413 0.0 0.0
8.32335329341317 0.0 0.0
8.263473053892213 0.0 0.0
8.203592814371254 0.0 0.0
8.143712574850296 0.0 0.0
8.083832335329337 0.0 0.0
8.02395209580838 0.0 0.0
7.964071856287422 0.0 0.0
7.904191616766464 0.0 0.0
7.844311377245505 0.0 0.0
7.784431137724548 0.0 0.0
7.72455089820359 0.0 0.0
7.664670658682631 0.0 0.0
7.604790419161674 0.0 0.0
7.544910179640715 0.0 0.0
7.485029940119757 0.0 0.0
7.425149700598799 0.0 0.0
7.36526946107784 0.0 0.0
7.305389221556883 0.0 0.0
7.245508982035925 0.0 0.0
7.185628742514966 0.0 0.0
7.125748502994009 0.0 0.0
7.065868263473051 0.0 0.0
7.005988023952092 0.0 0.0
6.946107784431135 0.0 0.0
6.886227544910177 0.0 0.0
6.826347305389219 0.0 0.0
6.766467065868261 0.0 0.0
6.706586826347303 0.0 0.0
6.646706586826344 0.0 0.0
6.586826347305387 0.0 0.0
6.526946107784428 0.0 0.0
6.46706586826347 0.0 0.0
6.407185628742512 0.0 0.0
6.347305389221554 0.0 0.0
6.287425149700596 0.0 0.0
6.227544910179638 0.0 0.0
6.16766467065868 0.0 0.0
6.107784431137722 0.0 0.0
6.047904191616764 0.0 0.0
5.988023952095805 0.0 0.0
5.928143712574848 0.0 0.0
5.868263473053889 0.0 0.0
5.808383233532932 0.0 0.0
5.748502994011973 0.0 0.0
5.688622754491016 0.0 0.0
5.628742514970057 0.0 0.0
5.568862275449099 0.0 0.0
5.508982035928141 0.0 0.0
5.449101796407183 0.0 0.0
5.389221556886225 0.0 0.0
5.329341317365267 0.0 0.0
5.269461077844309 0.0 0.0
5.209580838323351 0.0 0.0
5.149700598802393 0.0 0.0
5.089820359281434 0.0 0.0
5.029940119760477 0.0 0.0
4.970059880239518 0.0 0.0
4.91017964071856 0.0 0.0
4.850299401197602 0.0 0.0
4.790419161676644 0.0 0.0
4.730538922155686 0.0 0.0
4.670658682634729 0.0 0.0
4.610778443113769 0.0 0.0
4.550898203592812 0.0 0.0
4.491017964071854 0.0 0.0
4.431137724550896 0.0 0.0
4.371257485029938 0.0 0.0
4.31137724550898 0.0 0.0
4.251497005988022 0.0 0.0
4.191616766467064 0.0 0.0
4.131736526946106 0.0 0.0
4.071856287425147 0.0 0.0
4.01197604790419 0.0 0.0
3.952095808383231 0.0 0.0
3.892215568862274 0.0 0.0
3.832335329341316 0.0 0.0
3.772455089820358 0.0 0.0
3.712574850299399 0.0 0.0
3.652694610778441 0.0 0.0
3.592814371257483 0.0 0.0
3.532934131736526 0.0 0.0
3.473053892215567 0.0 0.0
3.41317365269461 0.0 0.0
3.353293413173652 0.0 0.0
3.293413173652693 0.0 0.0
3.233532934131736 0.0 0.0
3.173652694610777 0.0 0.0
3.113772455089819 0.0 0.0
3.053892215568861 0.0 0.0
2.994011976047903 0.0 0.0
2.934131736526945 0.0 0.0
2.874251497005988 0.0 0.0
2.814371257485028 0.0 0.0
2.754491017964071 0.0 0.0
2.694610778443113 0.0 0.0
2.634730538922155 0.0 0.0
2.574850299401197 0.0 0.0
2.514970059880238 0.0 0.0
2.455089820359281 0.0 0.0
2.395209580838323 0.0 0.0
2.335329341317365 0.0 0.0
2.275449101796406 0.0 0.0
2.215568862275448 0.0 0.0
2.15568862275449 0.0 0.0
2.095808383233532 0.0 0.0
2.035928143712574 0.0 0.0
1.976047904191615 0.0 0.0
1.916167664670658 0.0 0.0
1.8562874251497 0.0 0.0
1.796407185628741 0.0 0.0
1.736526946107784 0.0 0.0
1.676646706586826 0.0 0.0
1.616766467065867 0.0 0.0
1.55688622754491 0.0 0.0
1.49700598802395 0.0 0.0
1.437125748502995 0.0 0.0
1.377245508982035 0.0 0.0
1.317365269461078 0.0 0.0
1.257485029940119 0.0 0.0
1.19760479041916 0.0 0.0
1.137724550898204 0.0 0.0
1.077844311377245 0.0 0.0
1.017964071856287 0.0 0.0
0.958083832335328 0.0 0.0
0.8982035928143723 0.0 0.0
0.8383233532934131 0.0 0.0
0.7784431137724539 0.0 0.0
0.7185628742514965 0.0 0.0
0.658682634730539 0.0 0.0
0.5988023952095816 0.0 0.0
0.5389221556886223 0.0 0.0
0.4790419161676631 0.0 0.0
0.4191616766467074 0.0 0.0
0.3592814371257482 0.0 0.0
0.2994011976047908 0.0 0.0
0.2395209580838316 0.0 0.0
0.1796407185628741 0.0 0.0
0.1197604790419167 0.0 0.0
0.05988023952095922 0.0 0.0
0.0 0.0588235294116454 0.0
0.0 0.1176470588233168 0.0
0.0 0.1764705882349203 0.0
0.0 0.2352941176465135 0.0
0.0 0.2941176470581066 0.0
0.0 0.3529411764696997 0.0
0.0 0.4117647058812929 0.0
0.0 0.4705882352928861 0.0
0.0 0.5294117647046425 0.0
0.0 0.5882352941165623 0.0
0.0 0.6470588235284821 0.0
0.0 0.7058823529404019 0.0
0.0 0.7647058823523216 0.0
0.0 0.8235294117642414 0.0
0.0 0.8823529411761613 0.0
0.0 0.941176470588081 0.0
9.496671432578891 0.5021202775764965 0.0
0.503328567417594 0.502120277573701 0.0
8.960949321310713 0.5028360638807294 0.0
1.039050678683441 0.5028360638815293 0.0
8.421726050444477 0.5013914029598456 0.0
1.578273949553219 0.5013914029599852 0.0
2.110012838156869 0.501717680037117 0.0
[...]
POINT_DATA 11134
VECTORS vector double
1.0 0.0 0.0
0.0 0.0 0.0
0.0 0.0 0.0
0.0 0.0 0.0
1.19952395421 -4.22666874783e-05 0.0
1.0 0.0 0.0
0.0 0.0 0.0
0.0 0.0 0.0
0.0 0.0 0.0
0.0 0.0 0.0
0.0 0.0 0.0
0.0 0.0 0.0
0.0 0.0 0.0
0.0 0.0 0.0
0.0 0.0 0.0
0.0 0.0 0.0
0.0 0.0 0.0
0.0 0.0 0.0
0.0 0.0 0.0
0.0 0.0 0.0
0.0 0.0 0.0
0.0 0.0 0.0
0.0 0.0 0.0
0.0 0.0 0.0
0.0 0.0 0.0
0.0 0.0 0.0
0.0 0.0 0.0
0.0 0.0 0.0
0.0 0.0 0.0
0.0 0.0 0.0
0.0 0.0 0.0
0.0 0.0 0.0
0.0 0.0 0.0
0.0 0.0 0.0
0.0 0.0 0.0
0.0 0.0 0.0
0.0 0.0 0.0
0.0 0.0 0.0
0.0 0.0 0.0
0.0 0.0 0.0
0.0 0.0 0.0
0.0 0.0 0.0
0.0 0.0 0.0
0.0 0.0 0.0
0.0 0.0 0.0
0.0 0.0 0.0
0.0 0.0 0.0
0.0 0.0 0.0
0.0 0.0 0.0
0.0 0.0 0.0
0.0 0.0 0.0
0.0 0.0 0.0
0.0 0.0 0.0
0.0 0.0 0.0
0.0 0.0 0.0
0.0 0.0 0.0
0.0 0.0 0.0
0.0 0.0 0.0
0.0 0.0 0.0
0.0 0.0 0.0
0.0 0.0 0.0
0.0 0.0 0.0
0.0 0.0 0.0
0.0 0.0 0.0
0.0 0.0 0.0
0.0 0.0 0.0
0.0 0.0 0.0
0.0 0.0 0.0
0.0 0.0 0.0
0.0 0.0 0.0
0.0 0.0 0.0
0.0 0.0 0.0
0.0 0.0 0.0
0.0 0.0 0.0
0.0 0.0 0.0
0.0 0.0 0.0
0.0 0.0 0.0
0.0 0.0 0.0
0.0 0.0 0.0
0.0 0.0 0.0
0.0 0.0 0.0
0.0 0.0 0.0
0.0 0.0 0.0
0.0 0.0 0.0
0.0 0.0 0.0
0.0 0.0 0.0
0.0 0.0 0.0
0.0 0.0 0.0
0.0 0.0 0.0
0.0 0.0 0.0
0.0 0.0 0.0
0.0 0.0 0.0
0.0 0.0 0.0
0.0 0.0 0.0
0.0 0.0 0.0
0.0 0.0 0.0
0.0 0.0 0.0
0.0 0.0 0.0
0.0 0.0 0.0
0.0 0.0 0.0
0.0 0.0 0.0
0.0 0.0 0.0
0.0 0.0 0.0
0.0 0.0 0.0
0.0 0.0 0.0
0.0 0.0 0.0
0.0 0.0 0.0
0.0 0.0 0.0
0.0 0.0 0.0
0.0 0.0 0.0
0.0 0.0 0.0
0.0 0.0 0.0
0.0 0.0 0.0
0.0 0.0 0.0
0.0 0.0 0.0
0.0 0.0 0.0
0.0 0.0 0.0
0.0 0.0 0.0
0.0 0.0 0.0
0.0 0.0 0.0
0.0 0.0 0.0
0.0 0.0 0.0
0.0 0.0 0.0
0.0 0.0 0.0
0.0 0.0 0.0
0.0 0.0 0.0
0.0 0.0 0.0
0.0 0.0 0.0
0.0 0.0 0.0
0.0 0.0 0.0
0.0 0.0 0.0
0.0 0.0 0.0
0.0 0.0 0.0
0.0 0.0 0.0
0.0 0.0 0.0
0.0 0.0 0.0
0.0 0.0 0.0
0.0 0.0 0.0
0.0 0.0 0.0
0.0 0.0 0.0
0.0 0.0 0.0
0.0 0.0 0.0
0.0 0.0 0.0
0.0 0.0 0.0
0.0 0.0 0.0
0.0 0.0 0.0
0.0 0.0 0.0
0.0 0.0 0.0
0.0 0.0 0.0
0.0 0.0 0.0
0.0 0.0 0.0
0.0 0.0 0.0
0.0 0.0 0.0
0.0 0.0 0.0
0.0 0.0 0.0
0.0 0.0 0.0
0.0 0.0 0.0
0.0 0.0 0.0
0.0 0.0 0.0
0.0 0.0 0.0
0.0 0.0 0.0
0.0 0.0 0.0
0.0 0.0 0.0
0.0 0.0 0.0
0.0 0.0 0.0
0.0 0.0 0.0
0.0 0.0 0.0
0.0 0.0 0.0
0.0 0.0 0.0
0.0 0.0 0.0
0.0 0.0 0.0
0.278000592069 0.046830843931 0.0
0.517571709948 0.036304625632 0.0
0.707644478677 0.0263616976851 0.0
0.878988375407 0.0155698559771 0.0
1.01734732124 0.0120010584881 0.0
1.08438208779 0.0121811526398 0.0
1.13100816037 0.00575192232504 0.0
1.16877183967 0.00333663657551 0.0
1.1855831515 0.00225133493719 0.0
1.19430837979 0.000867481819998 0.0
1.19853620442 0.000400938848517 0.0
1.20041799351 8.98004548528e-05 0.0
1.20092582118 -4.56552300208e-05 0.0
1.20060905829 -1.19735421862e-05 0.0
1.20098119942 -5.01318119176e-05 0.0
1.2003149506 -7.02579143562e-05 0.0
1.20018027053 1.38808255202e-05 0.0
1.20021374662 8.6654580398e-06 0.0
1.20022122132 -2.178844241e-05 0.0
1.20016150397 -1.2409621484e-06 0.0
1.20010970365 -3.61015490033e-05 0.0
1.19984252723 -3.19691325055e-05 0.0
1.20025979611 1.85449942699e-06 0.0
1.19962773459 -5.6474327969e-06 0.0
1.2000501392 -4.66688876803e-05 0.0
1.19961415498 -1.64953783031e-05 0.0
1.199378052 -1.14318209085e-05 0.0
1.19986030629 -1.43603950792e-05 0.0
1.19946717645 -1.01233535702e-05 0.0
1.1993821368 -1.01969447568e-05 0.0
1.19932449413 -1.01577971998e-05 0.0
1.199341342 -6.16403262836e-06 0.0
1.19924438011 3.38869030373e-06 0.0
1.19973518394 1.06000724864e-05 0.0
1.19943962121 2.65299109843e-05 0.0
1.19947330034 -1.65914494483e-05 0.0
1.19947951045 1.44668193291e-05 0.0
1.19955900102 4.35001376757e-05 0.0
1.19953556767 -1.93100869148e-05 0.0
1.20003210205 2.22725789824e-05 0.0
1.1996962889 2.73862353059e-05 0.0
1.19970469444 -1.27164886015e-05 0.0
1.1997207534 1.56962893945e-05 0.0
1.1998641245 2.16394751217e-05 0.0
1.19987425396 6.42683986506e-06 0.0
1.19990945297 -5.88539331678e-07 0.0
1.19994134193 4.43025194291e-07 0.0
1.20034720632 2.66850793975e-05 0.0
1.19984191797 -2.20423812622e-05 0.0
1.20030703579 -1.02779636229e-05 0.0
1.19892533127 -3.46801152965e-07 0.0
1.200228091 1.04965382888e-05 0.0
1.19988353236 -3.87171972425e-05 0.0
1.19977364069 -7.09031945417e-07 0.0
1.19967622687 -3.12739133562e-05 0.0
1.19960899343 -2.04427485425e-05 0.0
1.19995394675 1.52363851811e-05 0.0
1.19940431907 -1.3795161308e-05 0.0
1.19992993049 -2.03953414131e-05 0.0
1.19846399976 4.30593900767e-06 0.0
1.19976117431 -2.11622101956e-05 0.0
1.19944455401 2.05341682202e-05 0.0
1.19940953135 -1.64290827728e-05 0.0
1.19927625974 -3.74229117997e-05 0.0
1.19927920753 2.15485536154e-05 0.0
1.19963545114 -1.70495288572e-05 0.0
1.19901791144 -2.16324248364e-05 0.0
1.19955024841 -6.87968579066e-06 0.0
1.19816725415 2.12883921431e-06 0.0
1.19944072429 -7.77329858362e-06 0.0
1.19912900516 8.25617259358e-06 0.0
1.19907891836 -7.54998973298e-06 0.0
1.19894851538 -4.26727164076e-05 0.0
1.19887577912 -1.66331403726e-05 0.0
1.19915903732 -3.27911607401e-05 0.0
1.19848763367 -1.23864088374e-06 0.0
1.19896174792 -3.4962333207e-05 0.0
1.19755883984 -1.44477558189e-06 0.0
1.19876106082 -1.76478362072e-05 0.0
1.19835402259 -5.04700587761e-05 0.0
1.19816073014 -3.12127803332e-05 0.0
1.1979535595 -3.41267480336e-05 0.0
1.19785914069 -3.820404509e-05 0.0
1.19774736277 -5.6947970619e-06 0.0
1.19800241018 -3.35321617752e-05 0.0
1.19752577623 -2.72351774269e-05 0.0
1.19737642541 -1.43256326252e-05 0.0
1.19744456027 8.33160185998e-06 0.0
1.19731139783 9.06243388895e-06 0.0
1.19769056358 -3.43530397696e-05 0.0
1.19724975249 -2.30271298763e-05 0.0
1.19722961246 7.02250967626e-06 0.0
1.19724579702 -6.73111040316e-07 0.0
1.19736504554 3.15705457582e-05 0.0
1.19761672403 6.99252272284e-06 0.0
1.19742160357 2.92392632515e-06 0.0
1.1973714444 -2.84876490736e-06 0.0
1.19747550831 1.58567053218e-05 0.0
1.19763748215 3.56575428342e-05 0.0
1.1981656295 3.14974913188e-05 0.0
1.1976516186 -1.1822637649e-05 0.0
1.19794119283 5.90691472381e-05 0.0
1.1979723195 1.60397629527e-05 0.0
1.19815342631 3.95543070204e-05 0.0
1.19876052092 6.15024894234e-05 0.0
1.19849811371 -7.88525113708e-06 0.0
1.19857263502 3.34335090969e-05 0.0
1.19869865903 2.05133075787e-05 0.0
1.19878494647 2.55660376327e-05 0.0
1.19934095535 3.32167520215e-05 0.0
1.19937862401 1.14236209495e-05 0.0
1.19807280743 -3.61965156507e-06 0.0
1.19946008314 9.57538330176e-06 0.0
1.19897232884 3.83253612961e-06 0.0
1.19956819567 2.36434802779e-05 0.0
1.19924239547 4.28137339707e-06 0.0
1.19928430342 3.74889226507e-05 0.0
1.19938061373 -4.33818427613e-09 0.0
1.19944035903 7.34270837092e-06 0.0
1.19982553003 1.99883883055e-05 0.0
1.19852940314 -1.38078233192e-06 0.0
1.20000780153 2.6825489101e-05 0.0
1.1994871118 2.03009934434e-05 0.0
1.20019332684 3.36016777883e-05 0.0
1.19991797764 2.02273608143e-05 0.0
1.20000078797 4.25249276362e-05 0.0
1.2002016946 3.62879451518e-05 0.0
1.2003479207 1.38509550757e-05 0.0
1.2007547078 2.65927085822e-05 0.0
1.1994732647 -5.83335655402e-06 0.0
1.20093223017 3.0969308696e-05 0.0
1.20040644338 1.17363533137e-05 0.0
1.20101028918 1.37160836195e-05 0.0
1.2006499931 -1.7705409647e-05 0.0
1.20059100986 8.88526166412e-06 0.0
1.20053719597 -2.27538765002e-05 0.0
1.20034586223 -9.8606394361e-05 0.0
1.20021839717 -0.00015363455292 0.0
1.19859467968 3.16809868737e-05 0.0
1.1993139076 -0.000221600957559 0.0
1.19797571766 -0.000127398626353 0.0
1.19716262828 -0.000452766278313 0.0
1.19521843505 -0.000412547614025 0.0
1.19372820344 -0.000373950517616 0.0
1.19136922628 -0.000429123643215 0.0
1.18927832181 -0.000658328139709 0.0
1.18577361578 -0.00126869738273 0.0
1.18240506734 0.000213010324767 0.0
1.17965446118 -0.00130771478633 0.0
1.17526924868 -0.000597800821838 0.0
1.17071114747 -0.00163669662088 0.0
1.16509694286 -0.0011862460054 0.0
1.16091665248 -0.000957207647995 0.0
1.15531492254 -0.000953710258999 0.0
1.15050944221 -0.00158172737037 0.0
1.1455773584 -0.000916738203613 0.0
1.1396372906 -0.000879743007818 0.0
1.13536542019 -0.00113201950733 0.0
1.12915151393 -0.00160704826805 0.0
1.12334459635 -0.00088596192284 0.0
1.11813427036 -0.0015788306205 0.0
1.11340874876 -0.00148584430145 0.0
1.10672487694 -0.00115229422819 0.0
1.10187370028 -0.00129427365926 0.0
1.09474642036 -0.00202775822913 0.0
1.08708937614 -0.00117017918634 0.0
1.08084627672 -0.00152161185622 0.0
1.07539703724 -0.00127124303369 0.0
1.06775635367 -0.0011683067007 0.0
1.06243095397 -0.0015755383146 0.0
1.05463528775 -0.0024550089284 0.0
1.04705674224 -0.00092961473385 0.0
1.04132899177 -0.0008163806205 0.0
1.03568881137 -0.0024608673527 0.0
1.02805703441 -0.000745358686406 0.0
1.02225943858 -0.00193397806239 0.0
1.01612935458 -0.00081199581975 0.0
1.01161781292 -0.00106662330542 0.0
1.00801221076 -0.000818970888177 0.0
1.0042690101 -0.000644976219787 0.0
1.00224169587 -0.000384472570153 0.0
1.00066987664 -0.000191660471391 0.0
1.0 0.0 0.0
1.0 0.0 0.0
1.0 0.0 0.0
1.0 0.0 0.0
1.0 0.0 0.0
1.0 0.0 0.0
1.0 0.0 0.0
1.0 0.0 0.0
1.0 0.0 0.0
1.0 0.0 0.0
1.0 0.0 0.0
1.0 0.0 0.0
1.0 0.0 0.0
1.0 0.0 0.0
1.0 0.0 0.0
1.0 0.0 0.0
1.17687267258 -0.00108505271071 0.0
1.07593848515 -0.0677496690724 0.0
1.17678753282 0.000133872506547 0.0
1.16393167215 -0.0595808217639 0.0
1.17729616823 0.000562964826436 0.0
1.1987010616 -0.0356682356808 0.0
1.19061801082 -0.015078971893 0.0
1.17769801389 -0.000417745480497 0.0
1.18232034377 -0.000654811497991 0.0
1.17936580577 -0.000636161144784 0.0
1.17965359019 0.00129680834521 0.0
1.17932273019 -0.000537173682653 0.0
1.17895327575 0.000591260356445 0.0
1.17919263211 -0.00114149684191 0.0
1.17926950081 0.000352206162141 0.0
1.1758554433 -0.000266770650586 0.0
1.17565511892 0.00140401475458 0.0
1.16821477812 0.00012911219707 0.0
1.05142789978 -0.00160382737839 0.0
1.17687546607 -0.0904289470411 0.0
1.19869230012 -0.000353865088397 0.0
1.08097751314 -0.0396547336025 0.0
1.04763336223 -0.000388107253189 0.0
1.13184224829 -0.0433370482091 0.0
1.19837757129 0.000679304349727 0.0
1.0467620172 0.0014384497799 0.0
1.07682584822 -0.0156790974616 0.0
1.04944533779 -0.000169027827043 0.0
1.04766298 -0.00104845912509 0.0
1.19752402819 -0.000743748785026 0.0
1.19871144723 9.93488992531e-05 0.0
1.04523502545 0.00244537281276 0.0
1.04683994913 -0.00047362482473 0.0
1.0463139499 0.00209622605863 0.0
1.04737437314 -0.000546996036889 0.0
1.04726374746 0.00102274888061 0.0
1.04356215105 -0.00194224520481 0.0
1.04303900693 0.00233162892093 0.0
1.19848275606 -0.000313428764456 0.0
1.19912781666 0.000677268270883 0.0
1.19866669621 -0.000161244789651 0.0
1.20050825501 0.000183265944675 0.0
1.20070753667 -0.00656868973711 0.0
1.19900975313 -0.000276347980822 0.0
1.19851416059 1.85625966932e-05 0.0
1.18767316723 -0.0224218126794 0.0
1.14747472289 -0.0311282069679 0.0
1.19872570616 0.000341075499335 0.0
1.19681831832 3.59032598797e-05 0.0
1.19743270353 0.000310601760827 0.0
1.00885915499 -0.00268525603618 0.0
1.00853899042 0.00253999806985 0.0
1.09991570221 -0.114731031155 0.0
0.999274385874 0.00147480581878 0.0
1.20011840404 -0.000500281770615 0.0
1.01695754564 -0.0257265966911 0.0
0.925549671204 -0.000158541303098 0.0
1.069987589 -0.0552190511996 0.0
0.903292558477 -0.000709943314317 0.0
0.949537995276 -0.0183015700688 0.0
1.19984543862 0.000232816418056 0.0
1.20015114326 0.000315826822689 0.0
1.19937343621 -0.000496181955156 0.0
1.19859836146 0.000584034794391 0.0
0.929872988717 -0.00369600860207 0.0
0.925190166898 -0.00140703707345 0.0
0.920496884479 0.00183088787041 0.0
0.923166854481 -0.00237706368579 0.0
0.921904143542 0.00185697517922 0.0
0.923359703026 -0.00225980608842 0.0
0.923729466149 0.000810321444141 0.0
0.924138813696 -0.00280655190025 0.0
0.923898998409 0.00104564819997 0.0
1.19795191698 -0.000255833648584 0.0
1.20119379846 0.000533107312951 0.0
1.19998676434 -0.000177988223502 0.0
1.20168107534 -0.00147936101965 0.0
1.20013242708 -0.000128958164238 0.0
0.917992360672 0.00121834181207 0.0
0.916300798301 -9.94394394864e-05 0.0
1.19316782605 -0.0121633691085 0.0
1.20068796542 -0.000216620706689 0.0
1.2000039656 -2.3161620753e-05 0.0
1.10327726477 -0.0293782559536 0.0
1.20062246725 0.000268589108845 0.0
1.16315402665 -0.0211014357803 0.0
0.924312029493 0.00162652875529 0.0
1.17405880538 -0.114011010181 0.0
1.2004284105 -0.000417603854101 0.0
1.0431899623 -0.0284886893743 0.0
0.867020276894 0.00282757229326 0.0
1.19831860038 0.000135204554904 0.0
1.01961888768 -0.0442234138441 0.0
1.17353619491 -0.000275067503968 0.0
1.17387876652 -0.000859810704852 0.0
1.17331662133 0.00102327634457 0.0
1.17555339018 0.00101354211883 0.0
1.17882445121 9.26664778857e-05 0.0
1.17533930215 -0.000730388131628 0.0
1.17821256638 0.000838436837615 0.0
1.17860392392 -0.000307623775597 0.0
1.1788264115 0.00074343287832 0.0
1.19160110026 -0.0439858085779 0.0
1.17793714041 -0.000104274968892 0.0
1.19917162409 -0.0280482013174 0.0
1.17933353557 0.00096623729039 0.0
1.17854968885 1.60592213289e-05 0.0
1.18386749214 -0.00362393198503 0.0
1.17874904934 -0.000135767261371 0.0
1.13712220534 -0.0652731674745 0.0
1.17684920537 -0.000381755484643 0.0
1.20021264174 7.81535367945e-05 0.0
1.11658992413 -0.0184450353773 0.0
1.19943372116 0.000129608421959 0.0
1.19897762816 -0.000297123412284 0.0
1.19985175451 0.000333662640785 0.0
1.19944523243 -0.00011890514341 0.0
1.20096995964 0.000213819032116 0.0
1.1997892392 -0.000167318120579 0.0
1.19936991548 -0.0028227927819 0.0
1.20000863303 -6.27080060946e-05 0.0
1.1800440863 -0.0121886035078 0.0
1.13969714308 -0.0164308888873 0.0
1.19975446037 0.000230799518033 0.0
0.74063678018 0.00176972777258 0.0
0.931744617906 -0.0504343997525 0.0
0.730558565103 4.4438016922e-05 0.0
0.747853869424 -0.00537672332807 0.0
0.722579965166 0.00196349393258 0.0
0.773826408519 -0.0165551459158 0.0
0.82044982514 -0.0255660974147 0.0
0.727837822566 0.00149719681947 0.0
0.726682670756 0.000849389953841 0.0
0.731887696266 0.0001180202817 0.0
0.729227887924 -0.000272761559474 0.0
0.731799681431 -0.000366297372816 0.0
0.727305323141 0.000513915172119 0.0
0.731168296799 0.00104453624405 0.0
0.724113596981 0.000625438885314 0.0
0.727686233985 0.000692616202188 0.0
0.730042033801 -3.08021882214e-05 0.0
0.731752521002 0.00102450324804 0.0
0.730697650457 -0.00181288616238 0.0
0.72634765094 -0.000319512121087 0.0
0.727296055618 0.000322074666465 0.0
0.728172781831 0.00075054654163 0.0
0.730155571463 -0.000324679900166 0.0
0.728395264371 -0.00032791204978 0.0
0.730632891728 -0.00245226634278 0.0
0.730046315819 0.00239406881187 0.0
1.19779348334 -9.65838725105e-05 0.0
1.16768755318 -0.000997773835637 0.0
1.11657334284 -0.0745894385506 0.0
1.1981096728 0.000339765607212 0.0
1.16884554624 -0.00110141639934 0.0
1.17776166772 -0.00689007842634 0.0
1.16917799593 -5.56961777513e-05 0.0
1.17071548021 0.000582082985439 0.0
1.16661148482 -3.03067167325e-05 0.0
1.16654516848 0.00092564698331 0.0
1.18879211756 -0.0204115945393 0.0
1.16801645282 -0.000396759684581 0.0
1.16704431872 -0.000943828989392 0.0
1.1667374225 -0.000163232303759 0.0
1.16724540847 0.000411177303935 0.0
1.18707913824 -0.0538968065433 0.0
1.16697589272 0.000666686159431 0.0
0.698207422824 0.0023532375478 0.0
0.69740784179 -0.000600788674876 0.0
1.20000432903 -0.000142721751154 0.0
1.07764886255 -0.0200041688911 0.0
1.12551444853 -0.153937398861 0.0
0.731189259535 0.00170821712509 0.0
0.715966504926 0.00819990425839 0.0
0.984498768128 -0.0721970423705 0.0
1.20071624632 8.17525833963e-05 0.0
1.16530226579 -0.0136886972244 0.0
1.19994329541 -0.000174595978877 0.0
1.19478361164 -0.00607567456963 0.0
1.1996270648 -0.000121473202422 0.0
1.20111970167 -0.000286075329467 0.0
1.20077434377 -0.000107839906268 0.0
1.00491204611 -0.00888712249587 0.0
1.19929847441 -0.000207122829883 0.0
1.20034401578 0.000377532541852 0.0
1.19897042094 -0.000433714484532 0.0
1.19967748071 0.000172121151331 0.0
1.1982531808 -0.000256745645119 0.0
1.19964819456 0.000351185329518 0.0
1.19908228598 0.000335389040909 0.0
1.19763904206 0.000321497450263 0.0
1.13495827358 -0.0380336124369 0.0
0.7015635949 0.00193569443089 0.0
0.702147232141 -0.00243936830535 0.0
1.19774969945 -0.000164166776526 0.0
1.1970938737 -0.0188244968423 0.0
1.20041682389 -0.000146106904114 0.0
1.05716588582 -0.0197923440958 0.0
1.19798097696 0.000371368083846 0.0
1.16854847347 -0.0308718677084 0.0
1.1971059674 -0.000201244308987 0.0
1.19990455178 -0.0030601441281 0.0
1.19696759038 -0.000132938839054 0.0
1.19819637462 0.000697638484188 0.0
1.19668554434 -0.000536000100344 0.0
1.19690297732 0.000579510920309 0.0
1.19672579788 0.000179457675378 0.0
0.691868799195 0.0024088226784 0.0
0.668007071428 0.00325997977367 0.0
1.19821980886 0.00014723564361 0.0
1.19748528782 3.4581594964e-05 0.0
0.675806208228 0.00419587071172 0.0
1.11737703995 -0.122483148339 0.0
1.20083874012 -0.000288581766839 0.0
1.02221141136 -0.0157240531062 0.0
1.19569437523 -0.000208668729674 0.0
1.19575411116 0.000832365102825 0.0
1.19435590037 6.0159065504e-05 0.0
1.19430977731 0.000229458674694 0.0
1.19602500695 0.000501774233403 0.0
1.19602812522 0.000418612843232 0.0
1.19550732379 -0.00107692114124 0.0
1.19689414811 0.000940868481448 0.0
1.19611767512 -0.000456566222591 0.0
1.09729897252 -6.51397406849e-05 0.0
1.18271118485 -0.076670518085 0.0
1.19856684831 -0.000409997782081 0.0
1.19621587062 -0.000367033348538 0.0
1.19994748846 -0.0119138980951 0.0
1.19696678269 -0.000400628260329 0.0
1.09626618424 -0.000725980616892 0.0
1.09547750711 -0.000130153562367 0.0
1.09665699841 0.000177297705372 0.0
1.0946791039 0.00282013226817 0.0
1.15684239512 -0.0404094950646 0.0
1.09319163857 0.00186458731417 0.0
1.13819886435 -0.0265844193624 0.0
1.09492518158 0.000647629778858 0.0
1.09620545323 0.000510649117292 0.0
1.09702995016 -0.00106069602065 0.0
1.09604698063 0.000288950299285 0.0
1.10182927686 0.000584027161057 0.0
1.10100946261 0.000468596929323 0.0
1.06805573429 -0.0483195108776 0.0
1.19689772215 -0.000811875073579 0.0
1.0970672394 0.000957591644736 0.0
1.10191571039 -0.000436670196166 0.0
1.15049446641 -0.000395472802054 0.0
1.06247639108 -0.074222425741 0.0
1.02098267987 -0.0542363231104 0.0
1.09824462425 -0.000425637148131 0.0
1.00510707689 -0.0172353596272 0.0
1.19870919971 -0.000246881463386 0.0
1.19862423366 -0.000596198464743 0.0
1.03749073816 -0.0395519851952 0.0
1.19499741139 0.00102711548366 0.0
1.19445785321 -0.000475137575032 0.0
1.10190780072 0.00303526835495 0.0
1.10270612709 -0.00213659571919 0.0
1.19659243207 0.000412692773567 0.0
1.18744521549 -0.0288022748482 0.0
1.11890321429 -0.0460067509924 0.0
1.19589648519 -0.000156070544345 0.0
1.06398586736 -0.0026179791514 0.0
1.07104633776 -0.00287161633067 0.0
1.06277848068 -0.00244262334891 0.0
1.06204776499 0.00303092934019 0.0
1.06319973836 -0.00205892143517 0.0
1.06253349753 0.00261939184614 0.0
1.06410086642 -0.00228742931295 0.0
1.06352942131 0.00139603837063 0.0
1.06395490567 0.00133071004857 0.0
1.08438626773 -0.0130522792204 0.0
1.06499689244 0.00149765882152 0.0
1.15055303342 -0.0549145322456 0.0
1.04946149426 -0.00101064078107 0.0
1.17616950062 0.000449885510045 0.0
1.17666993845 0.000280269447748 0.0
1.12801620219 -0.0897202475629 0.0
1.12873726572 -0.000692763668895 0.0
1.12272141448 -0.0126214285446 0.0
1.20001952445 0.000122889049809 0.0
1.05111025032 0.00126549710193 0.0
1.12991086631 -0.110230571761 0.0
1.09844693653 -0.0135083019585 0.0
1.19969605512 7.49546411155e-05 0.0
1.19814128359 8.61174739873e-05 0.0
1.19840686833 0.000200613586721 0.0
1.1975327766 -0.000206797276421 0.0
1.19804846737 -0.000104962785715 0.0
1.19934507996 0.000201445522369 0.0
1.19827091532 -0.000114180878192 0.0
1.19871214339 -0.00105818167796 0.0
1.18361157433 -0.00664954477663 0.0
1.19971600329 -4.88570865381e-05 0.0
1.14575470652 -0.0113351322946 0.0
1.20030700806 0.000106722461403 0.0
0.576121750043 -0.00125442208722 0.0
0.696698133192 -0.0260079337377 0.0
0.56402468901 0.00381760178971 0.0
0.564063646729 -0.00180231519517 0.0
0.511544880996 -0.0046704760264 0.0
0.524895166061 -0.00312593476337 0.0
0.570103384617 -0.00321582780869 0.0
0.572751414902 -0.000617674876258 0.0
0.575018137186 -9.86726594312e-05 0.0
0.579771742894 -0.00265931672856 0.0
0.578469679687 -0.00108342921376 0.0
0.580335819025 -0.00208347721062 0.0