# vtk DataFile Version 2.0
2D Simulation Python
ASCII
DATASET UNSTRUCTURED_GRID
FIELD FieldData 1
NODES 1 2 int
11134 7299

POINTS 11134 double
0.0 1.0 0.0
1.725 1.0 0.0
8.275 1.0 0.0
10.0 1.0 0.0
10.0 0.0 0.0
0.0 0.0 0.0
0.05948275862057954 1.0 0.0
0.1189655172411507 1.0 0.0
0.1784482758617532 1.0 0.0
0.2379310344823185 1.0 0.0
0.2974137931028384 1.0 0.0
0.3568965517233564 1.0 0.0
0.4163793103438745 1.0 0.0
0.475862068964385 1.0 0.0
0.535344827584889 1.0 0.0
0.5948275862053855 1.0 0.0
0.654310344825882 1.0 0.0
0.7137931034463786 1.0 0.0
0.7732758620668752 1.0 0.0
0.8327586206874149 1.0 0.0
0.8922413793081027 1.0 0.0
0.9517241379289384 1.0 0.0
1.011206896549752 1.0 0.0
1.070689655170612 1.0 0.0
1.130172413791474 1.0 0.0
1.189655172412335 1.0 0.0
1.249137931033183 1.0 0.0
1.308620689654105 1.0 0.0
1.368103448274985 1.0 0.0
1.427586206895818 1.0 0.0
1.487068965516628 1.0 0.0
1.546551724137449 1.0 0.0
1.606034482758285 1.0 0.0
1.665517241379139 1.0 0.0
1.784545454545345 1.0 0.0
1.844090909090676 1.0 0.0
1.903636363635991 1.0 0.0
1.963181818181336 1.0 0.0
2.022727272726716 1.0 0.0
2.082272727272112 1.0 0.0
2.141818181817408 1.0 0.0
2.201363636362702 1.0 0.0
2.260909090908037 1.0 0.0
2.320454545453433 1.0 0.0
2.379999999998759 1.0 0.0
2.439545454544053 1.0 0.0
2.499090909089358 1.0 0.0
2.558636363634754 1.0 0.0
2.618181818180109 1.0 0.0
2.677727272725404 1.0 0.0
2.737272727270631 1.0 0.0
2.796818181815906 1.0 0.0
2.856363636361191 1.0 0.0
2.915909090906408 1.0 0.0
2.975454545451703 1.0 0.0
3.034999999997049 1.0 0.0
3.094545454542377 1.0 0.0
3.154090909087591 1.0 0.0
3.21363636363288 1.0 0.0
3.273181818178196 1.0 0.0
3.332727272723555 1.0 0.0
3.392272727268849 1.0 0.0
3.451818181814208 1.0 0.0
3.511363636359524 1.0 0.0
3.570909090904812 1.0 0.0
3.630454545450026 1.0 0.0
3.689999999995355 1.0 0.0
3.749545454540702 1.0 0.0
3.809090909085996 1.0 0.0
3.868636363631291 1.0 0.0
3.928181818176585 1.0 0.0
3.987727272721861 1.0 0.0
4.047272727267021 1.0 0.0
4.106818181812208 1.0 0.0
4.166363636357625 1.0 0.0
4.225909090903122 1.0 0.0
4.285454545448432 1.0 0.0
4.34499999999356 1.0 0.0
4.404545454538917 1.0 0.0
4.464090909084414 1.0 0.0
4.523636363629791 1.0 0.0
4.583181818174936 1.0 0.0
4.642727272720208 1.0 0.0
4.702272727265705 1.0 0.0
4.761818181811142 1.0 0.0
4.821363636356348 1.0 0.0
4.880909090901557 1.0 0.0
4.940454545446997 1.0 0.0
4.999999999992493 1.0 0.0
5.059545454538018 1.0 0.0
5.119090909083717 1.0 0.0
5.17863636362933 1.0 0.0
5.238181818174827 1.0 0.0
5.297727272720321 1.0 0.0
5.357272727265989 1.0 0.0
5.416818181811662 1.0 0.0
5.476363636357158 1.0 0.0
5.535909090902654 1.0 0.0
5.595454545448262 1.0 0.0
5.65499999999396 1.0 0.0
5.714545454539491 1.0 0.0
5.774090909085032 1.0 0.0
5.83363636363093 1.0 0.0
5.893181818176673 1.0 0.0
5.952727272722171 1.0 0.0
6.012272727267668 1.0 0.0
6.071818181813491 1.0 0.0
6.131363636359353 1.0 0.0
6.190909090904849 1.0 0.0
6.250454545450346 1.0 0.0
6.309999999996052 1.0 0.0
6.369545454541951 1.0 0.0
6.429090909087529 1.0 0.0
6.488636363633026 1.0 0.0
6.548181818178611 1.0 0.0
6.60772727272451 1.0 0.0
6.667272727270209 1.0 0.0
6.726818181815705 1.0 0.0
6.786363636361202 1.0 0.0
6.845909090907071 1.0 0.0
6.905454545452889 1.0 0.0
6.964999999998385 1.0 0.0
7.024545454543881 1.0 0.0
7.084090909089378 1.0 0.0
7.143636363634876 1.0 0.0
7.20318181818037 1.0 0.0
7.262727272725868 1.0 0.0
7.322272727271365 1.0 0.0
7.381818181816859 1.0 0.0
7.441363636362357 1.0 0.0
7.500909090907854 1.0 0.0
7.560454545453348 1.0 0.0
7.619999999998846 1.0 0.0
7.679545454544343 1.0 0.0
7.739090909089839 1.0 0.0
7.798636363635335 1.0 0.0
7.858181818180832 1.0 0.0
7.917727272726328 1.0 0.0
7.977272727271824 1.0 0.0
8.036818181817441 1.0 0.0
8.09636363636334 1.0 0.0
8.155909090909008 1.0 0.0
8.215454545454504 1.0 0.0
8.334482758620055 1.0 0.0
8.393965517240051 1.0 0.0
8.453448275859904 1.0 0.0
8.51293103448045 1.0 0.0
8.572413793100301 1.0 0.0
8.631896551720153 1.0 0.0
8.6913793103407 1.0 0.0
8.750862068961245 1.0 0.0
8.810344827581792 1.0 0.0
8.869827586202339 1.0 0.0
8.929310344822884 1.0 0.0
8.988793103443431 1.0 0.0
9.048275862063978 1.0 0.0
9.107758620684523 1.0 0.0
9.16724137930507 1.0 0.0
9.226724137925617 1.0 0.0
9.286206896546162 1.0 0.0
9.345689655167401 1.0 0.0
9.405172413788595 1.0 0.0
9.46465517240963 1.0 0.0
9.524137931030667 1.0 0.0
9.583620689651704 1.0 0.0
9.643103448272907 1.0 0.0
9.702586206894148 1.0 0.0
9.762068965515388 1.0 0.0
9.821551724136627 1.0 0.0
9.881034482757867 1.0 0.0
9.940517241378963 1.0 0.0
10.0 0.9411764705879904 0.0
10.0 0.882352941175982 0.0
10.0 0.8235294117645425 0.0
10.0 0.764705882353186 0.0
10.0 0.7058823529418295 0.0
10.0 0.6470588235304731 0.0
10.0 0.5882352941191167 0.0
10.0 0.5294117647077601 0.0
10.0 0.4705882352960771 0.0
10.0 0.4117647058840672 0.0
10.0 0.3529411764720576 0.0
10.0 0.2941176470600479 0.0
10.0 0.2352941176480381 0.0
10.0 0.1764705882360285 0.0
10.0 0.1176470588240187 0.0
10.0 0.05882352941200908 0.0
9.940119760479043 0.0 0.0
9.880239520958083 0.0 0.0
9.820359281437126 0.0 0.0
9.760479041916167 0.0 0.0
9.70059880239521 0.0 0.0
9.640718562874252 0.0 0.0
9.580838323353293 0.0 0.0
9.520958083832335 0.0 0.0
9.461077844311376 0.0 0.0
9.401197604790418 0.0 0.0
9.34131736526946 0.0 0.0
9.281437125748502 0.0 0.0
9.221556886227543 0.0 0.0
9.161676646706585 0.0 0.0
9.101796407185628 0.0 0.0
9.041916167664668 0.0 0.0
8.982035928143711 0.0 0.0
8.922155688622752 0.0 0.0
8.862275449101794 0.0 0.0
8.802395209580837 0.0 0.0
8.742514970059878 0.0 0.0
8.68263473053892 0.0 0.0
8.622754491017961 0.0 0.0
8.562874251497004 0.0 0.0
8.502994011976044 0.0 0.0
8.443113772455087 0.0 0.0
8.38323353293413 0.0 0.0
8.32335329341317 0.0 0.0
8.263473053892213 0.0 0.0
8.203592814371254 0.0 0.0
8.143712574850296 0.0 0.0
8.083832335329337 0.0 0.0
8.02395209580838 0.0 0.0
7.964071856287422 0.0 0.0
7.904191616766464 0.0 0.0
7.844311377245505 0.0 0.0
7.784431137724548 0.0 0.0
7.72455089820359 0.0 0.0
7.664670658682631 0.0 0.0
7.604790419161674 0.0 0.0
7.544910179640715 0.0 0.0
7.485029940119757 0.0 0.0
7.425149700598799 0.0 0.0
7.36526946107784 0.0 0.0
7.305389221556883 0.0 0.0
7.245508982035925 0.0 0.0
7.185628742514966 0.0 0.0
7.125748502994009 0.0 0.0
7.065868263473051 0.0 0.0
7.005988023952092 0.0 0.0
6.946107784431135 0.0 0.0
6.886227544910177 0.0 0.0
6.826347305389219 0.0 0.0
6.766467065868261 0.0 0.0
6.706586826347303 0.0 0.0
6.646706586826344 0.0 0.0
6.586826347305387 0.0 0.0
6.526946107784428 0.0 0.0
6.46706586826347 0.0 0.0
6.407185628742512 0.0 0.0
6.347305389221554 0.0 0.0
6.287425149700596 0.0 0.0
6.227544910179638 0.0 0.0
6.16766467065868 0.0 0.0
6.107784431137722 0.0 0.0
6.047904191616764 0.0 0.0
5.988023952095805 0.0 0.0
5.928143712574848 0.0 0.0
5.868263473053889 0.0 0.0
5.808383233532932 0.0 0.0
5.748502994011973 0.0 0.0
5.688622754491016 0.0 0.0
5.628742514970057 0.0 0.0
5.568862275449099 0.0 0.0
5.508982035928141 0.0 0.0
5.449101796407183 0.0 0.0
5.389221556886225 0.0 0.0
5.329341317365267 0.0 0.0
5.269461077844309 0.0 0.0
5.209580838323351 0.0 0.0
5.149700598802393 0.0 0.0
5.089820359281434 0.0 0.0
5.029940119760477 0.0 0.0
4.970059880239518 0.0 0.0
4.91017964071856 0.0 0.0
4.850299401197602 0.0 0.0
4.790419161676644 0.0 0.0
4.730538922155686 0.0 0.0
4.670658682634729 0.0 0.0
4.610778443113769 0.0 0.0
4.550898203592812 0.0 0.0
4.491017964071854 0.0 0.0
4.431137724550896 0.0 0.0
4.371257485029938 0.0 0.0
4.31137724550898 0.0 0.0
4.251497005988022 0.0 0.0
4.191616766467064 0.0 0.0
4.131736526946106 0.0 0.0
4.071856287425147 0.0 0.0
4.01197604790419 0.0 0.0
3.952095808383231 0.0 0.0
3.892215568862274 0.0 0.0
3.832335329341316 0.0 0.0
3.772455089820358 0.0 0.0
3.712574850299399 0.0 0.0
3.652694610778441 0.0 0.0
3.592814371257483 0.0 0.0
3.532934131736526 0.0 0.0
3.473053892215567 0.0 0.0
3.41317365269461 0.0 0.0
3.353293413173652 0.0 0.0
3.293413173652693 0.0 0.0
3.233532934131736 0.0 0.0
3.173652694610777 0.0 0.0
3.113772455089819 0.0 0.0
3.053892215568861 0.0 0.0
2.994011976047903 0.0 0.0
2.934131736526945 0.0 0.0
2.874251497005988 0.0 0.0
2.814371257485028 0.0 0.0
2.754491017964071 0.0 0.0
2.694610778443113 0.0 0.0
2.634730538922155 0.0 0.0
2.574850299401197 0.0 0.0
2.514970059880238 0.0 0.0
2.455089820359281 0.0 0.0
2.395209580838323 0.0 0.0
2.335329341317365 0.0 0.0
2.275449101796406 0.0 0.0
2.215568862275448 0.0 0.0
2.15568862275449 0.0 0.0
2.095808383233532 0.0 0.0
2.035928143712574 0.0 0.0
1.976047904191615 0.0 0.0
1.916167664670658 0.0 0.0
1.8562874251497 0.0 0.0
1.796407185628741 0.0 0.0
1.736526946107784 0.0 0.0
1.676646706586826 0.0 0.0
1.616766467065867 0.0 0.0
1.55688622754491 0.0 0.0
1.49700598802395 0.0 0.0
1.437125748502995 0.0 0.0
1.377245508982035 0.0 0.0
1.317365269461078 0.0 0.0
1.257485029940119 0.0 0.0
1.19760479041916 0.0 0.0
1.137724550898204 0.0 0.0
1.077844311377245 0.0 0.0
1.017964071856287 0.0 0.0
0.958083832335328 0.0 0.0
0.8982035928143723 0.0 0.0
0.8383233532934131 0.0 0.0
0.7784431137724539 0.0 0.0
0.7185628742514965 0.0 0.0
0.658682634730539 0.0 0.0
0.5988023952095816 0.0 0.0
0.5389221556886223 0.0 0.0
0.4790419161676631 0.0 0.0
0.4191616766467074 0.0 0.0
0.3592814371257482 0.0 0.0
0.2994011976047908 0.0 0.0
0.2395209580838316 0.0 0.0
0.1796407185628741 0.0 0.0
0.1197604790419167 0.0 0.0
0.05988023952095922 0.0 0.0
0.0 0.0588235294116454 0.0
0.0 0.1176470588233168 0.0
0.0 0.1764705882349203 0.0
0.0 0.2352941176465135 0.0
0.0 0.2941176470581066 0.0
0.0 0.3529411764696997 0.0
0.0 0.4117647058812929 0.0
0.0 0.4705882352928861 0.0
0.0 0.5294117647046425 0.0
0.0 0.5882352941165623 0.0
0.0 0.6470588235284821 0.0
0.0 0.7058823529404019 0.0
0.0 0.7647058823523216 0.0
0.0 0.8235294117642414 0.0
0.0 0.8823529411761613 0.0
0.0 0.941176470588081 0.0
9.496671432578891 0.5021202775764965 0.0
0.503328567417594 0.502120277573701 0.0
8.960949321310713 0.5028360638807292 0.0
1.039050678683441 0.5028360638815292 0.0
8.421726050444478 0.5013914029598455 0.0
1.578273949553219 0.5013914029599852 0.0
2.110012838156869 0.501717680037117 0.0
[...]
POINT_DATA 11134
VECTORS vector double
1.0 0.0 0.0
0.0 0.0 0.0
0.0 0.0 0.0
0.0 0.0 0.0
0.0 0.0 0.0
1.0 0.0 0.0
0.0 0.0 0.0
0.0 0.0 0.0
0.0 0.0 0.0
0.0 0.0 0.0
0.0 0.0 0.0
0.0 0.0 0.0
0.0 0.0 0.0
0.0 0.0 0.0
0.0 0.0 0.0
0.0 0.0 0.0
0.0 0.0 0.0
0.0 0.0 0.0
0.0 0.0 0.0
0.0 0.0 0.0
0.0 0.0 0.0
0.0 0.0 0.0
0.0 0.0 0.0
0.0 0.0 0.0
0.0 0.0 0.0
0.0 0.0 0.0
0.0 0.0 0.0
0.0 0.0 0.0
0.0 0.0 0.0
0.0 0.0 0.0
0.0 0.0 0.0
0.0 0.0 0.0
0.0 0.0 0.0
0.0 0.0 0.0
0.0 0.0 0.0
0.0 0.0 0.0
0.0 0.0 0.0
0.0 0.0 0.0
0.0 0.0 0.0
0.0 0.0 0.0
0.0 0.0 0.0
0.0 0.0 0.0
0.0 0.0 0.0
0.0 0.0 0.0
0.0 0.0 0.0
0.0 0.0 0.0
0.0 0.0 0.0
0.0 0.0 0.0
0.0 0.0 0.0
0.0 0.0 0.0
0.0 0.0 0.0
0.0 0.0 0.0
0.0 0.0 0.0
0.0 0.0 0.0
0.0 0.0 0.0
0.0 0.0 0.0
0.0 0.0 0.0
0.0 0.0 0.0
0.0 0.0 0.0
0.0 0.0 0.0
0.0 0.0 0.0
0.0 0.0 0.0
0.0 0.0 0.0
0.0 0.0 0.0
0.0 0.0 0.0
0.0 0.0 0.0
0.0 0.0 0.0
0.0 0.0 0.0
0.0 0.0 0.0
0.0 0.0 0.0
0.0 0.0 0.0
0.0 0.0 0.0
0.0 0.0 0.0
0.0 0.0 0.0
0.0 0.0 0.0
0.0 0.0 0.0
0.0 0.0 0.0
0.0 0.0 0.0
0.0 0.0 0.0
0.0 0.0 0.0
0.0 0.0 0.0
0.0 0.0 0.0
0.0 0.0 0.0
0.0 0.0 0.0
0.0 0.0 0.0
0.0 0.0 0.0
0.0 0.0 0.0
0.0 0.0 0.0
0.0 0.0 0.0
0.0 0.0 0.0
0.0 0.0 0.0
0.0 0.0 0.0
0.0 0.0 0.0
0.0 0.0 0.0
0.0 0.0 0.0
0.0 0.0 0.0
0.0 0.0 0.0
0.0 0.0 0.0
0.0 0.0 0.0
0.0 0.0 0.0
0.0 0.0 0.0
0.0 0.0 0.0
0.0 0.0 0.0
0.0 0.0 0.0
0.0 0.0 0.0
0.0 0.0 0.0
0.0 0.0 0.0
0.0 0.0 0.0
0.0 0.0 0.0
0.0 0.0 0.0
0.0 0.0 0.0
0.0 0.0 0.0
0.0 0.0 0.0
0.0 0.0 0.0
0.0 0.0 0.0
0.0 0.0 0.0
0.0 0.0 0.0
0.0 0.0 0.0
0.0 0.0 0.0
0.0 0.0 0.0
0.0 0.0 0.0
0.0 0.0 0.0
0.0 0.0 0.0
0.0 0.0 0.0
0.0 0.0 0.0
0.0 0.0 0.0
0.0 0.0 0.0
0.0 0.0 0.0
0.0 0.0 0.0
0.0 0.0 0.0
0.0 0.0 0.0
0.0 0.0 0.0
0.0 0.0 0.0
0.0 0.0 0.0
0.0 0.0 0.0
0.0 0.0 0.0
0.0 0.0 0.0
0.0 0.0 0.0
0.0 0.0 0.0
0.0 0.0 0.0
0.0 0.0 0.0
0.0 0.0 0.0
0.0 0.0 0.0
0.0 0.0 0.0
0.0 0.0 0.0
0.0 0.0 0.0
0.0 0.0 0.0
0.0 0.0 0.0
0.0 0.0 0.0
0.0 0.0 0.0
0.0 0.0 0.0
0.0 0.0 0.0
0.0 0.0 0.0
0.0 0.0 0.0
0.0 0.0 0.0
0.0 0.0 0.0
0.0 0.0 0.0
0.0 0.0 0.0
0.0 0.0 0.0
0.0 0.0 0.0
0.0 0.0 0.0
0.0 0.0 0.0
0.0 0.0 0.0
0.0 0.0 0.0
0.0 0.0 0.0
0.0 0.0 0.0
0.0 0.0 0.0
0.0 0.0 0.0
0.0 0.0 0.0
0.0 0.0 0.0
0.0 0.0 0.0
0.392171628377 0.0643951781458 0.0
0.707542815307 0.0457302383498 0.0
0.93794946049 0.0305676710089 0.0
1.12599101037 0.0159752405494 0.0
1.25870483696 0.0104811442871 0.0
1.31239842896 0.00858693736101 0.0
1.34771647278 0.00368238614089 0.0
1.36662155858 0.000893074543385 0.0
1.36569071523 -0.00108102595725 0.0
1.35015762148 -0.00446563645133 0.0
1.3147737118 -0.00789670241888 0.0
1.24620228333 -0.0175544077938 0.0
1.13938375414 -0.0204546898497 0.0
0.968856577596 -0.0291759959211 0.0
0.734924356237 -0.0272687926204 0.0
0.387996590251 -0.0615120710023 0.0
0.0 0.0 0.0
0.0 0.0 0.0
0.0 0.0 0.0
0.0 0.0 0.0
0.0 0.0 0.0
0.0 0.0 0.0
0.0 0.0 0.0
0.0 0.0 0.0
0.0 0.0 0.0
0.0 0.0 0.0
0.0 0.0 0.0
0.0 0.0 0.0
0.0 0.0 0.0
0.0 0.0 0.0
0.0 0.0 0.0
0.0 0.0 0.0
0.0 0.0 0.0
0.0 0.0 0.0
0.0 0.0 0.0
0.0 0.0 0.0
0.0 0.0 0.0
0.0 0.0 0.0
0.0 0.0 0.0
0.0 0.0 0.0
0.0 0.0 0.0
0.0 0.0 0.0
0.0 0.0 0.0
0.0 0.0 0.0
0.0 0.0 0.0
0.0 0.0 0.0
0.0 0.0 0.0
0.0 0.0 0.0
0.0 0.0 0.0
0.0 0.0 0.0
0.0 0.0 0.0
0.0 0.0 0.0
0.0 0.0 0.0
0.0 0.0 0.0
0.0 0.0 0.0
0.0 0.0 0.0
0.0 0.0 0.0
0.0 0.0 0.0
0.0 0.0 0.0
0.0 0.0 0.0
0.0 0.0 0.0
0.0 0.0 0.0
0.0 0.0 0.0
0.0 0.0 0.0
0.0 0.0 0.0
0.0 0.0 0.0
0.0 0.0 0.0
0.0 0.0 0.0
0.0 0.0 0.0
0.0 0.0 0.0
0.0 0.0 0.0
0.0 0.0 0.0
0.0 0.0 0.0
0.0 0.0 0.0
0.0 0.0 0.0
0.0 0.0 0.0
0.0 0.0 0.0
0.0 0.0 0.0
0.0 0.0 0.0
0.0 0.0 0.0
0.0 0.0 0.0
0.0 0.0 0.0
0.0 0.0 0.0
0.0 0.0 0.0
0.0 0.0 0.0
0.0 0.0 0.0
0.0 0.0 0.0
0.0 0.0 0.0
0.0 0.0 0.0
0.0 0.0 0.0
0.0 0.0 0.0
0.0 0.0 0.0
0.0 0.0 0.0
0.0 0.0 0.0
0.0 0.0 0.0
0.0 0.0 0.0
0.0 0.0 0.0
0.0 0.0 0.0
0.0 0.0 0.0
0.0 0.0 0.0
0.0 0.0 0.0
0.0 0.0 0.0
0.0 0.0 0.0
0.0 0.0 0.0
0.0 0.0 0.0
0.0 0.0 0.0
0.0 0.0 0.0
0.0 0.0 0.0
0.0 0.0 0.0
0.0 0.0 0.0
0.0 0.0 0.0
0.0 0.0 0.0
0.0 0.0 0.0
0.0 0.0 0.0
0.0 0.0 0.0
0.0 0.0 0.0
0.0 0.0 0.0
0.0 0.0 0.0
0.0 0.0 0.0
0.0 0.0 0.0
0.0 0.0 0.0
0.0 0.0 0.0
0.0 0.0 0.0
0.0 0.0 0.0
0.0 0.0 0.0
0.0 0.0 0.0
0.0 0.0 0.0
0.0 0.0 0.0
0.0 0.0 0.0
0.0 0.0 0.0
0.0 0.0 0.0
0.0 0.0 0.0
0.0 0.0 0.0
0.0 0.0 0.0
0.0 0.0 0.0
0.0 0.0 0.0
0.0 0.0 0.0
0.0 0.0 0.0
0.0 0.0 0.0
0.0 0.0 0.0
0.0 0.0 0.0
0.0 0.0 0.0
0.0 0.0 0.0
0.0 0.0 0.0
0.0 0.0 0.0
0.0 0.0 0.0
0.0 0.0 0.0
0.0 0.0 0.0
0.0 0.0 0.0
0.0 0.0 0.0
0.0 0.0 0.0
0.0 0.0 0.0
0.0 0.0 0.0
0.0 0.0 0.0
0.0 0.0 0.0
0.0 0.0 0.0
0.0 0.0 0.0
0.0 0.0 0.0
0.0 0.0 0.0
0.0 0.0 0.0
0.0 0.0 0.0
0.0 0.0 0.0
0.0 0.0 0.0
0.0 0.0 0.0
0.0 0.0 0.0
0.0 0.0 0.0
0.0 0.0 0.0
0.0 0.0 0.0
0.0 0.0 0.0
0.0 0.0 0.0
0.0 0.0 0.0
0.0 0.0 0.0
0.0 0.0 0.0
0.0 0.0 0.0
0.0 0.0 0.0
0.0 0.0 0.0
0.0 0.0 0.0
0.0 0.0 0.0
0.0 0.0 0.0
0.0 0.0 0.0
0.0 0.0 0.0
0.0 0.0 0.0
1.0 0.0 0.0
1.0 0.0 0.0
1.0 0.0 0.0
1.0 0.0 0.0
1.0 0.0 0.0
1.0 0.0 0.0
1.0 0.0 0.0
1.0 0.0 0.0
1.0 0.0 0.0
1.0 0.0 0.0
1.0 0.0 0.0
1.0 0.0 0.0
1.0 0.0 0.0
1.0 0.0 0.0
1.0 0.0 0.0
1.0 0.0 0.0
1.3686055589 0.00113163598456 0.0
1.14165395249 -0.000919918467927 0.0
1.36630565012 -0.0004311014556 0.0
1.2978621214 -0.001223720269 0.0
1.36717065245 -0.00103619457742 0.0
1.36237646353 -0.000471929495216 0.0
1.36817221017 -0.00115011027458 0.0
1.36920136163 -0.00150965810468 0.0
1.36949206665 0.00125487429134 0.0
1.36898890395 -9.42280642633e-05 0.0
1.36797397877 0.000864538569943 0.0
1.36820215429 0.00110278375314 0.0
1.36766417601 -0.00115892874416 0.0
1.36603567266 0.00254270018923 0.0
1.36795210427 -0.000571367583449 0.0
1.36442485796 0.000233779412598 0.0
1.36534152598 -0.000906973771971 0.0
1.36353098564 -0.00175105948681 0.0
1.28647936139 -0.00028463749253 0.0
1.25205004188 -0.0459572264717 0.0
1.2874349655 -0.00116925166089 0.0
1.24933480874 0.0483871673984 0.0
1.28398849993 -0.00103445466595 0.0
1.28751544224 -0.0124447325623 0.0
1.28445643179 0.000260858928348 0.0
1.28459363174 0.000522948098908 0.0
1.28501257488 -0.000628390102851 0.0
1.28403895208 0.00149392450979 0.0
1.28649332629 -0.0011965079091 0.0
1.28627284679 0.000491256726526 0.0
1.28120377308 0.000494242006792 0.0
1.28366770835 0.00367259095499 0.0
1.28572966329 0.000320778022732 0.0
1.28516601061 0.000868641535608 0.0
1.28436564586 0.0010437393113 0.0
1.28504770708 0.000714284973014 0.0
1.27712399386 0.00057860397791 0.0
1.27988345228 0.00145364829467 0.0
1.2827801273 0.000634886263851 0.0
1.28170976078 0.000856201557619 0.0
1.28175662412 -0.000576655924407 0.0
1.28361971423 0.00275186632159 0.0
1.28365024317 0.00188519448794 0.0
1.28073469894 -0.00229934896734 0.0
1.29018870196 -0.00126748977314 0.0
1.2916893885 -0.00178851073058 0.0
1.28380818626 0.0116591725649 0.0
1.28180937091 0.00133592885156 0.0
1.27709616325 -0.00156366870944 0.0
1.27605228364 -0.00181355677625 0.0
1.24823321407 -0.00273985557251 0.0
1.24933850743 0.000346375616074 0.0
1.11341669183 -0.0876154972999 0.0
1.2430965261 0.00203092980603 0.0
1.2629857756 -0.000534643807479 0.0
1.10532883453 0.0777314660203 0.0
1.17154092003 -0.000745891910227 0.0
1.20127642994 -0.0290465294113 0.0
1.15097851962 -0.00187898243366 0.0
1.15365796033 -0.00260078156148 0.0
1.166947659 -0.0048117018964 0.0
1.16821804228 -0.0048464831498 0.0
1.17181339451 0.00624089771789 0.0
1.15741628919 0.00299575609493 0.0
1.17156098502 -0.00193930974513 0.0
1.17458554498 -0.00221813077824 0.0
1.16924543124 0.00303009567672 0.0
1.17316960672 -0.00318603416394 0.0
1.1723168834 0.00180088513055 0.0
1.17254453168 -0.00259370605534 0.0
1.17287902753 6.68636341808e-05 0.0
1.17042949256 -0.00151813450523 0.0
1.17212864958 0.000832337822931 0.0
1.16205164267 -0.00424771799368 0.0
1.16888636297 -0.00388855658945 0.0
1.16787706869 0.0054383949767 0.0
1.17065030308 -0.00343175596959 0.0
1.16611555014 0.00464070972288 0.0
1.16140935677 0.00243179998168 0.0
1.16267550275 -0.00111066693635 0.0
1.17455056218 -0.00140605755886 0.0
1.17041178782 0.000351755751028 0.0
1.18516632376 0.00122279574563 0.0
1.20941618437 0.0286126257142 0.0
1.17841557466 -0.00189514675432 0.0
1.18191933414 0.00223616861713 0.0
1.17144072557 0.00272278168651 0.0
1.21557310101 -0.0793815100473 0.0
1.15486084957 0.00306993946754 0.0
1.21199769783 0.0811442677633 0.0
1.10979320823 0.0017162335112 0.0
1.16171886009 -0.00112040980338 0.0
1.03591924298 -0.00492048676057 0.0
1.36876130773 0.000459957015321 0.0
1.36563524754 -0.00124490154774 0.0
1.36506490386 -0.00114850580684 0.0
1.36703270881 -0.00031537864566 0.0
1.36832818443 -0.000589230557386 0.0
1.36453833753 0.000975844226182 0.0
1.36806389089 -0.000540444472047 0.0
1.36704958795 0.00215069440367 0.0
1.36686534776 -0.000283578555421 0.0
1.34984363821 -0.00057424058777 0.0
1.36847356809 -0.00153510827483 0.0
1.36698219742 -0.000198192206822 0.0
1.36882461531 0.00197544156801 0.0
1.36893561849 0.000796469521747 0.0
1.36997540528 0.000662875079879 0.0
1.3692346552 -0.0007524997654 0.0
1.25136865661 0.000150623034897 0.0
1.36691200106 0.000493034263443 0.0
0.972594119783 -0.00261536278913 0.0
0.991620508987 0.0147740952086 0.0
0.977669780983 -0.00320557465422 0.0
0.981630354412 0.00477542111813 0.0
0.977317852171 -0.00397606397899 0.0
0.978516001662 0.00435018992701 0.0
0.978607653736 -0.00300584941779 0.0
0.978777893836 0.00317054635757 0.0
0.982208599736 -0.00278525968857 0.0
0.982637620719 -0.00285234742072 0.0
0.983949941686 0.00155734372389 0.0
0.982451681049 0.00408948492057 0.0
0.977761662182 0.000769864070271 0.0
0.972415607402 0.0025776237763 0.0
1.0438035499 -0.0328086326659 0.0
0.962835139856 -0.000365754231618 0.0
0.963840695781 0.00118645352137 0.0
0.953306300045 0.00163868405598 0.0
0.959908652953 -0.00558842138552 0.0
0.981839728928 -0.0123457370182 0.0
0.95930351827 0.0012455482977 0.0
0.959705008897 0.00140035232568 0.0
0.96667587109 0.000215118295774 0.0
0.962701852498 0.000337089563514 0.0
0.967161112848 -0.00107599079409 0.0
0.962291626014 0.00104371618435 0.0
0.965359906521 0.00152696429272 0.0
0.959606620739 0.0014871897996 0.0
0.963450030893 0.000646862644263 0.0
0.964005499758 -0.000629820818018 0.0
0.964398442479 0.00210069265142 0.0
0.958412777479 0.000792998357083 0.0
0.960407160793 -0.000703875154882 0.0
0.964030391836 -0.000281634676466 0.0
0.963160641958 0.00097984104745 0.0
0.962622592184 -0.00030625345189 0.0
0.96279378327 -0.000637984298466 0.0
0.962408004987 -0.00142639380413 0.0
0.964491256312 0.00240875712399 0.0
0.963328442304 -0.000584990729007 0.0
1.3661587028 0.000883039628098 0.0
1.19909910724 -0.00962570442837 0.0
0.956923809355 -0.00110363584176 0.0
1.3674964344 -0.00167998380202 0.0
1.36800016111 3.5792172181e-05 0.0
1.36740554998 0.000352299048846 0.0
1.36769332671 0.00233489614193 0.0
1.36523145624 0.00136760021786 0.0
1.36607332637 0.000260049030308 0.0
1.36580499957 -0.000866040263209 0.0
1.36777610369 -0.00159037965597 0.0
1.36290853143 0.00196592506485 0.0
1.36631557898 -0.000662663317721 0.0
1.36589554178 -0.000216906938533 0.0
1.32937930466 -0.00481392571088 0.0
1.36453778482 -0.000528416819798 0.0
0.920591088095 0.00408741999819 0.0
0.923607050095 -0.000883820759318 0.0
0.943260878138 0.00410606001316 0.0
1.01611984845 0.0262308823809 0.0
1.12989228805 -0.142936886507 0.0
0.964472254036 0.00191833414576 0.0
0.945913606076 0.00956338185627 0.0
1.06441358041 -0.0522734063592 0.0
0.942887593138 -0.00615146965618 0.0
0.942883007653 0.00396879357771 0.0
0.950165301854 -0.000926818109282 0.0
0.954965358429 0.000225491341409 0.0
0.949942659515 -0.00322732293585 0.0
0.953546661908 0.00396845124203 0.0
0.965448254592 -0.00258608632131 0.0
1.13318448722 0.142810882192 0.0
0.954143980611 -0.00396815547855 0.0
0.953188189627 0.00381477204141 0.0
0.945151358624 -0.000793008979917 0.0
0.95720704659 0.00413028941935 0.0
0.935517171177 0.00492175487035 0.0
0.957832777692 0.00408236161335 0.0
0.930914505969 -0.00481290075704 0.0
1.31643526364 -0.00124266992128 0.0
1.30104924956 0.0208694934641 0.0
0.925640311995 0.00245115231734 0.0
0.930501256064 -0.00411876932208 0.0
1.32440111397 -0.00269380770555 0.0
1.3252321146 0.000445093366089 0.0
0.930452510212 0.00301976600691 0.0
1.05142652856 0.0437539579142 0.0
1.31488828527 0.000352037986282 0.0
1.31533551312 0.00536408373128 0.0
1.32248737066 -0.000935070392385 0.0
1.32499368925 0.0013428965644 0.0
1.32265982544 0.000629923764856 0.0
1.32379069471 0.00155998404096 0.0
1.32320939347 0.00221151667207 0.0
1.32260077708 -0.000371178601904 0.0
1.3242393596 0.000285444011417 0.0
0.913141385003 0.00262858520981 0.0
0.885721995767 0.00275030370128 0.0
0.894445323646 -0.00067822833383 0.0
0.922559564812 0.000410595500587 0.0
0.900989974949 0.00528439327512 0.0
1.14602616358 -0.104119285742 0.0
0.90603200154 0.00227127167306 0.0
1.14901559467 0.0998703011067 0.0
1.32611389987 -0.000252300940439 0.0
1.32571976692 -0.00221805559191 0.0
1.33465635261 -0.000760649511204 0.0
1.33403028157 -0.00114954281834 0.0
1.32962738124 -0.000550722627459 0.0
1.32932463409 -0.000749391730951 0.0
1.32929105135 0.00309991725899 0.0
1.32970234603 0.000184951902865 0.0
1.32923567542 0.00174419826676 0.0
1.32314061207 -0.000147433258821 0.0
1.28203591267 -0.0297884470649 0.0
1.33148316077 0.00173430934538 0.0
1.32942438983 0.000277775713443 0.0
1.33014562804 0.000373042146035 0.0
1.32852726152 -0.00164607762169 0.0
1.3233686596 -0.000668687530483 0.0
1.32346551314 -0.00128223982248 0.0
1.32226556858 0.00206802427535 0.0
1.32129649569 0.000979547614044 0.0
1.32088263608 -0.00919768575658 0.0
1.32070474175 0.0006340409618 0.0
1.32213795291 -0.00268447165103 0.0
1.32275165531 0.00139116054583 0.0
1.32448027845 0.000896494239843 0.0
1.32314116844 0.000731137807042 0.0
1.32511549605 -0.000106174620086 0.0
1.32406328023 0.00072164628433 0.0
1.32447344355 -0.00107349833732 0.0
1.20086449193 0.0418287536694 0.0
1.33552927957 0.00240177875578 0.0
1.32167352934 -0.000488499651782 0.0
1.32522460123 -0.00219162550331 0.0
1.35992726212 0.000981612581156 0.0
1.09480702704 -0.025096091993 0.0
1.02649490534 -0.0347817126033 0.0
1.32537761677 8.64502271547e-05 0.0
1.02402464275 0.0344437761757 0.0
1.31970091495 -0.000623850264864 0.0
1.31808835827 4.67116270739e-05 0.0
1.14319354129 0.0568368082326 0.0
1.33647081421 -0.00100983791291 0.0
1.33680343743 -3.4924981734e-05 0.0
1.32656857706 0.00164822836196 0.0
1.3248787002 -0.00043179552817 0.0
1.33731793992 -0.00174166422215 0.0
1.33826005129 0.00148067510698 0.0
1.28432055947 0.02475971221 0.0
1.33767115819 8.58298430196e-05 0.0
1.29934379327 -0.00337951780717 0.0
1.29815706766 0.000301200858667 0.0
1.29865514852 -0.0021159635586 0.0
1.2971467043 0.00403610520771 0.0
1.29766122625 -0.00136314185385 0.0
1.29831979731 0.00160949037715 0.0
1.29537235257 0.000313588755697 0.0
1.29861904974 0.000354683466856 0.0
1.29828295821 0.000718083343207 0.0
1.29847720728 -0.00313960815149 0.0
1.30015605126 0.000196012177066 0.0
1.28682335603 -0.0201670972782 0.0
1.28516465817 -0.00178891473568 0.0
1.36425094721 -0.00141292215865 0.0
1.3648969452 -0.000384130831238 0.0
1.18350200542 -0.0354198247465 0.0
1.34560422563 0.00096737690962 0.0
0.776699635556 0.00749300905015 0.0
0.768888897085 -0.00255715040281 0.0
1.28769367163 0.0021831684912 0.0
1.15843779763 -0.0703914060185 0.0
0.771602075245 0.00929231927766 0.0
0.741486037824 -1.96496340976e-05 0.0
0.717805823357 0.000923606186773 0.0
0.712821144874 0.00101429343746 0.0
0.716610204231 0.0025660550055 0.0
0.712950868716 0.00287552628972 0.0
0.712729712604 0.00130346447272 0.0
0.71030144875 0.00261099624154 0.0
0.714288652295 0.00121986611626 0.0
0.684946020498 0.00456370710394 0.0
0.681835304686 -0.00115220798106 0.0
0.757489424568 3.69662867479e-05 0.0
0.7591925223 0.0010770606754 0.0
0.775228030752 -0.00140703631996 0.0
0.821260967559 -0.0175029289189 0.0
0.75721955725 0.00596483816005 0.0
0.761310476389 -0.00313267682429 0.0
0.700244240037 -0.00667407316435 0.0
0.699082103615 0.00129911666477 0.0
0.771561241661 -0.00340526020365 0.0
0.775303638858 -0.0018017695279 0.0
0.778709987388 -8.0097341262e-06 0.0
0.784456842353 -0.00335475380678 0.0
0.784634346131 -0.0019344816924 0.0
0.78481564187 -0.00224062667919 0.0
0.784564369288 -0.00275386667976 0.0
0.783959986701 -0.00171908024442 0.0
0.783786891248 -0.00252390736376 0.0
0.77328342844 -0.000503876708716 0.0
0.766888104728 -0.000308016274935 0.0
1.35316093316 0.000793363769215 0.0
1.0757241288 0.0317759536447 0.0
0.690377085566 -0.0019961712165 0.0
0.860584389492 -0.0304681966862 0.0
0.721636368302 0.00175757592745 0.0
0.896854759917 0.0406123049695 0.0
1.32756614458 2.4686592263e-05 0.0
1.32890446988 -0.00357429140782 0.0
1.3278646065 -0.000873249533725 0.0
1.29958513856 -0.0233229078732 0.0
1.2402450428 -0.000979932549501 0.0
1.23270770775 -0.0601984518986 0.0
0.708707010741 0.0027972789988 0.0
1.32964593358 0.00101199978725 0.0
1.33115797833 -8.85978181884e-05 0.0
1.32937657563 0.000299600844212 0.0
1.3301269607 0.000652680668014 0.0
1.32990698713 -0.00182286661959 0.0
1.32754330323 0.00201220182303 0.0
1.32951196632 -0.00101865004689 0.0
0.726277693278 0.000177582139752 0.0
0.69373936071 0.00458766460107 0.0
1.07810659023 -0.122017990008 0.0
0.691945243763 -0.0043869565438 0.0
1.07962694761 0.120163685918 0.0
0.682658902353 -0.000514881544835 0.0
0.691406191727 -0.00160376896493 0.0
0.669770087729 0.0101379630048 0.0
0.667271542622 -0.0079317536513 0.0
0.712621658001 0.00757412047278 0.0
0.718418603926 -0.0055855174904 0.0
0.672860894623 -0.00814933257937 0.0
0.67164812881 0.0110586083282 0.0
0.672825174662 -0.0081032773548 0.0
0.674155897134 0.0102517736727 0.0
0.672611128744 0.0103544296998 0.0
0.663829241857 -0.00615909745817 0.0
0.666082338558 0.00299069258579 0.0
0.663676399672 0.00655508523824 0.0
0.669709950805 -0.00855647794434 0.0
0.662432642021 0.0081522087474 0.0
0.666094337017 -0.00935790248229 0.0
0.664756937947 0.00833418158249 0.0
0.665425057694 -0.00975755171187 0.0
0.673462446932 -0.00637576191444 0.0
1.3624091951 -0.000351089694748 0.0
1.35849681115 -0.000614166745131 0.0
1.33517717701 0.00719307203823 0.0
1.35990589728 0.000439753728444 0.0
1.36023311673 0.00174250737016 0.0
1.35951055872 0.000625172600708 0.0
1.35906181718 0.00131077944071 0.0
1.36087100801 0.00277516163905 0.0
1.3600343287 -4.36414524531e-05 0.0
1.36055882431 -0.0023099794537 0.0
1.35993766381 -0.000165270748832 0.0
1.36113491823 0.00116106268927 0.0
1.35996927298 -0.00186029800152 0.0
1.228003022 0.0142795648099 0.0
1.36294409434 0.00100490406724 0.0
1.24433107206 0.000891604623525 0.0
1.24892721005 0.0394685089565 0.0
1.23921200687 -0.000621902044532 0.0
1.24185810513 -0.00093910991009 0.0
1.242604173 0.000807085991799 0.0
1.23894928979 -0.001409775819 0.0
1.34374332608 -0.00139004509161 0.0
1.34304361769 -0.00291824173593 0.0
0.598416116956 -0.000475860918 0.0
0.619852382275 -0.0046315385736 0.0
0.677725243653 0.00020568532399 0.0
0.645096086585 0.0025093717581 0.0
0.612052172484 0.00389464977205 0.0
0.614769191019 -0.0035061500673 0.0
0.599950904426 0.00217959217947 0.0
0.602554189382 -0.00119672867692 0.0
0.599725937038 0.000963313147204 0.0
0.603102862506 -0.000467108989854 0.0
0.600820092013 0.00122739790122 0.0
0.600910506897 -0.000280613326001 0.0
0.594280881096 0.00168896210237 0.0
0.592830183969 -0.00136721502013 0.0
0.592293561872 0.00173046151157 0.0
1.22773774437 0.000315480884233 0.0
1.22009417127 -0.00127959955141 0.0
0.66969070834 -0.00834545090598 0.0
0.671084450927 0.00989071129594 0.0
1.01144448021 -0.00658701237027 0.0
1.36707245187 0.000145974228076 0.0
1.34390027769 0.000491983706495 0.0
1.34585675836 0.000687222699662 0.0
0.61621361167 -0.00937820851213 0.0
1.34379571677 0.00193648892782 0.0
1.34446034342 1.75599093728e-05 0.0
1.34334946762 0.00347146189162 0.0
1.3437727865 -0.00161813976431 0.0
1.3439148152 -0.00111433550581 0.0
0.623006664654 -0.00611393744936 0.0
0.617399771648 0.00367983045539 0.0
0.620296362051 -0.0052936307357 0.0
0.618798343045 0.00339008355921 0.0
0.629044266272 0.00364678617818 0.0
0.67011238897 0.00559156844283 0.0
0.669768937669 0.000556180516173 0.0
0.672219431687 -0.00180172052161 0.0
0.673380276225 0.00225230398131 0.0
0.764835322422 -0.0191697647184 0.0
0.656590236529 -6.85166060351e-05 0.0
0.654318986484 -0.00249507471194 0.0