# vtk DataFile Version 2.0
2D Simulation Python
ASCII
DATASET UNSTRUCTURED_GRID
FIELD FieldData 1
NODES 1 2 int
11134 7299

POINTS 11134 double
0.0 1.0 0.0
1.725 1.0 0.0
8.275 1.0 0.0
10.0 1.0 0.0
10.0 0.0 0.0
0.0 0.0 0.0
0.05948275862057954 1.0 0.0
0.1189655172411507 1.0 0.0
0.1784482758617532 1.0 0.0
0.2379310344823185 1.0 0.0
0.2974137931028384 1.0 0.0
0.3568965517233564 1.0 0.0
0.4163793103438745 1.0 0.0
0.475862068964385 1.0 0.0
0.535344827584889 1.0 0.0
0.5948275862053855 1.0 0.0
0.654310344825882 1.0 0.0
0.7137931034463786 1.0 0.0
0.7732758620668752 1.0 0.0
0.8327586206874149 1.0 0.0
0.8922413793081027 1.0 0.0
0.9517241379289384 1.0 0.0
1.011206896549752 1.0 0.0
1.070689655170612 1.0 0.0
1.130172413791474 1.0 0.0
1.189655172412335 1.0 0.0
1.249137931033183 1.0 0.0
1.308620689654105 1.0 0.0
1.368103448274985 1.0 0.0
1.427586206895818 1.0 0.0
1.487068965516628 1.0 0.0
1.546551724137449 1.0 0.0
1.606034482758285 1.0 0.0
1.665517241379139 1.0 0.0
1.784545454545345 1.0 0.0
1.844090909090676 1.0 0.0
1.903636363635991 1.0 0.0
1.963181818181336 1.0 0.0
2.022727272726716 1.0 0.0
2.082272727272112 1.0 0.0
2.141818181817408 1.0 0.0
2.201363636362702 1.0 0.0
2.260909090908037 1.0 0.0
2.320454545453433 1.0 0.0
2.379999999998759 1.0 0.0
2.439545454544053 1.0 0.0
2.499090909089358 1.0 0.0
2.558636363634754 1.0 0.0
2.618181818180109 1.0 0.0
2.677727272725404 1.0 0.0
2.737272727270631 1.0 0.0
2.796818181815906 1.0 0.0
2.856363636361191 1.0 0.0
2.915909090906408 1.0 0.0
2.975454545451703 1.0 0.0
3.034999999997049 1.0 0.0
3.094545454542377 1.0 0.0
3.154090909087591 1.0 0.0
3.21363636363288 1.0 0.0
3.273181818178196 1.0 0.0
3.332727272723555 1.0 0.0
3.392272727268849 1.0 0.0
3.451818181814208 1.0 0.0
3.511363636359524 1.0 0.0
3.570909090904812 1.0 0.0
3.630454545450026 1.0 0.0
3.689999999995355 1.0 0.0
3.749545454540702 1.0 0.0
3.809090909085996 1.0 0.0
3.868636363631291 1.0 0.0
3.928181818176585 1.0 0.0
3.987727272721861 1.0 0.0
4.047272727267021 1.0 0.0
4.106818181812208 1.0 0.0
4.166363636357625 1.0 0.0
4.225909090903122 1.0 0.0
4.285454545448432 1.0 0.0
4.34499999999356 1.0 0.0
4.404545454538917 1.0 0.0
4.464090909084414 1.0 0.0
4.523636363629791 1.0 0.0
4.583181818174936 1.0 0.0
4.642727272720208 1.0 0.0
4.702272727265705 1.0 0.0
4.761818181811142 1.0 0.0
4.821363636356348 1.0 0.0
4.880909090901557 1.0 0.0
4.940454545446997 1.0 0.0
4.999999999992493 1.0 0.0
5.059545454538018 1.0 0.0
5.119090909083717 1.0 0.0
5.17863636362933 1.0 0.0
5.238181818174827 1.0 0.0
5.297727272720321 1.0 0.0
5.357272727265989 1.0 0.0
5.416818181811662 1.0 0.0
5.476363636357158 1.0 0.0
5.535909090902654 1.0 0.0
5.595454545448262 1.0 0.0
5.65499999999396 1.0 0.0
5.714545454539491 1.0 0.0
5.774090909085032 1.0 0.0
5.83363636363093 1.0 0.0
5.893181818176673 1.0 0.0
5.952727272722171 1.0 0.0
6.012272727267668 1.0 0.0
6.071818181813491 1.0 0.0
6.131363636359353 1.0 0.0
6.190909090904849 1.0 0.0
6.250454545450346 1.0 0.0
6.309999999996052 1.0 0.0
6.369545454541951 1.0 0.0
6.429090909087529 1.0 0.0
6.488636363633026 1.0 0.0
6.548181818178611 1.0 0.0
6.60772727272451 1.0 0.0
6.667272727270209 1.0 0.0
6.726818181815705 1.0 0.0
6.786363636361202 1.0 0.0
6.845909090907071 1.0 0.0
6.905454545452889 1.0 0.0
6.964999999998385 1.0 0.0
7.024545454543881 1.0 0.0
7.084090909089378 1.0 0.0
7.143636363634876 1.0 0.0
7.20318181818037 1.0 0.0
7.262727272725868 1.0 0.0
7.322272727271365 1.0 0.0
7.381818181816859 1.0 0.0
7.441363636362357 1.0 0.0
7.500909090907854 1.0 0.0
7.560454545453348 1.0 0.0
7.619999999998846 1.0 0.0
7.679545454544343 1.0 0.0
7.739090909089839 1.0 0.0
7.798636363635335 1.0 0.0
7.858181818180832 1.0 0.0
7.917727272726328 1.0 0.0
7.977272727271824 1.0 0.0
8.036818181817441 1.0 0.0
8.09636363636334 1.0 0.0
8.155909090909008 1.0 0.0
8.215454545454504 1.0 0.0
8.334482758620055 1.0 0.0
8.393965517240051 1.0 0.0
8.453448275859904 1.0 0.0
8.51293103448045 1.0 0.0
8.572413793100301 1.0 0.0
8.631896551720153 1.0 0.0
8.6913793103407 1.0 0.0
8.750862068961245 1.0 0.0
8.810344827581792 1.0 0.0
8.869827586202339 1.0 0.0
8.929310344822884 1.0 0.0
8.988793103443431 1.0 0.0
9.048275862063978 1.0 0.0
9.107758620684523 1.0 0.0
9.16724137930507 1.0 0.0
9.226724137925617 1.0 0.0
9.286206896546162 1.0 0.0
9.345689655167401 1.0 0.0
9.405172413788595 1.0 0.0
9.46465517240963 1.0 0.0
9.524137931030667 1.0 0.0
9.583620689651704 1.0 0.0
9.643103448272907 1.0 0.0
9.702586206894148 1.0 0.0
9.762068965515388 1.0 0.0
9.821551724136627 1.0 0.0
9.881034482757867 1.0 0.0
9.940517241378963 1.0 0.0
10.0 0.9411764705879904 0.0
10.0 0.882352941175982 0.0
10.0 0.8235294117645425 0.0
10.0 0.764705882353186 0.0
10.0 0.7058823529418295 0.0
10.0 0.6470588235304731 0.0
10.0 0.5882352941191167 0.0
10.0 0.5294117647077601 0.0
10.0 0.4705882352960771 0.0
10.0 0.4117647058840672 0.0
10.0 0.3529411764720576 0.0
10.0 0.2941176470600479 0.0
10.0 0.2352941176480381 0.0
10.0 0.1764705882360285 0.0
10.0 0.1176470588240187 0.0
10.0 0.05882352941200908 0.0
9.940119760479043 0.0 0.0
9.880239520958083 0.0 0.0
9.820359281437126 0.0 0.0
9.760479041916167 0.0 0.0
9.70059880239521 0.0 0.0
9.640718562874252 0.0 0.0
9.580838323353293 0.0 0.0
9.520958083832335 0.0 0.0
9.461077844311376 0.0 0.0
9.401197604790418 0.0 0.0
9.34131736526946 0.0 0.0
9.281437125748502 0.0 0.0
9.221556886227543 0.0 0.0
9.161676646706585 0.0 0.0
9.101796407185628 0.0 0.0
9.041916167664668 0.0 0.0
8.982035928143711 0.0 0.0
8.922155688622752 0.0 0.0
8.862275449101794 0.0 0.0
8.802395209580837 0.0 0.0
8.742514970059878 0.0 0.0
8.68263473053892 0.0 0.0
8.622754491017961 0.0 0.0
8.562874251497004 0.0 0.0
8.502994011976044 0.0 0.0
8.443113772455087 0.0 0.0
8.38323353293413 0.0 0.0
8.32335329341317 0.0 0.0
8.263473053892213 0.0 0.0
8.203592814371254 0.0 0.0
8.143712574850296 0.0 0.0
8.083832335329337 0.0 0.0
8.02395209580838 0.0 0.0
7.964071856287422 0.0 0.0
7.904191616766464 0.0 0.0
7.844311377245505 0.0 0.0
7.784431137724548 0.0 0.0
7.72455089820359 0.0 0.0
7.664670658682631 0.0 0.0
7.604790419161674 0.0 0.0
7.544910179640715 0.0 0.0
7.485029940119757 0.0 0.0
7.425149700598799 0.0 0.0
7.36526946107784 0.0 0.0
7.305389221556883 0.0 0.0
7.245508982035925 0.0 0.0
7.185628742514966 0.0 0.0
7.125748502994009 0.0 0.0
7.065868263473051 0.0 0.0
7.005988023952092 0.0 0.0
6.946107784431135 0.0 0.0
6.886227544910177 0.0 0.0
6.826347305389219 0.0 0.0
6.766467065868261 0.0 0.0
6.706586826347303 0.0 0.0
6.646706586826344 0.0 0.0
6.586826347305387 0.0 0.0
6.526946107784428 0.0 0.0
6.46706586826347 0.0 0.0
6.407185628742512 0.0 0.0
6.347305389221554 0.0 0.0
6.287425149700596 0.0 0.0
6.227544910179638 0.0 0.0
6.16766467065868 0.0 0.0
6.107784431137722 0.0 0.0
6.047904191616764 0.0 0.0
5.988023952095805 0.0 0.0
5.928143712574848 0.0 0.0
5.868263473053889 0.0 0.0
5.808383233532932 0.0 0.0
5.748502994011973 0.0 0.0
5.688622754491016 0.0 0.0
5.628742514970057 0.0 0.0
5.568862275449099 0.0 0.0
5.508982035928141 0.0 0.0
5.449101796407183 0.0 0.0
5.389221556886225 0.0 0.0
5.329341317365267 0.0 0.0
5.269461077844309 0.0 0.0
5.209580838323351 0.0 0.0
5.149700598802393 0.0 0.0
5.089820359281434 0.0 0.0
5.029940119760477 0.0 0.0
4.970059880239518 0.0 0.0
4.91017964071856 0.0 0.0
4.850299401197602 0.0 0.0
4.790419161676644 0.0 0.0
4.730538922155686 0.0 0.0
4.670658682634729 0.0 0.0
4.610778443113769 0.0 0.0
4.550898203592812 0.0 0.0
4.491017964071854 0.0 0.0
4.431137724550896 0.0 0.0
4.371257485029938 0.0 0.0
4.31137724550898 0.0 0.0
4.251497005988022 0.0 0.0
4.191616766467064 0.0 0.0
4.131736526946106 0.0 0.0
4.071856287425147 0.0 0.0
4.01197604790419 0.0 0.0
3.952095808383231 0.0 0.0
3.892215568862274 0.0 0.0
3.832335329341316 0.0 0.0
3.772455089820358 0.0 0.0
3.712574850299399 0.0 0.0
3.652694610778441 0.0 0.0
3.592814371257483 0.0 0.0
3.532934131736526 0.0 0.0
3.473053892215567 0.0 0.0
3.41317365269461 0.0 0.0
3.353293413173652 0.0 0.0
3.293413173652693 0.0 0.0
3.233532934131736 0.0 0.0
3.173652694610777 0.0 0.0
3.113772455089819 0.0 0.0
3.053892215568861 0.0 0.0
2.994011976047903 0.0 0.0
2.934131736526945 0.0 0.0
2.874251497005988 0.0 0.0
2.814371257485028 0.0 0.0
2.754491017964071 0.0 0.0
2.694610778443113 0.0 0.0
2.634730538922155 0.0 0.0
2.574850299401197 0.0 0.0
2.514970059880238 0.0 0.0
2.455089820359281 0.0 0.0
2.395209580838323 0.0 0.0
2.335329341317365 0.0 0.0
2.275449101796406 0.0 0.0
2.215568862275448 0.0 0.0
2.15568862275449 0.0 0.0
2.095808383233532 0.0 0.0
2.035928143712574 0.0 0.0
1.976047904191615 0.0 0.0
1.916167664670658 0.0 0.0
1.8562874251497 0.0 0.0
1.796407185628741 0.0 0.0
1.736526946107784 0.0 0.0
1.676646706586826 0.0 0.0
1.616766467065867 0.0 0.0
1.55688622754491 0.0 0.0
1.49700598802395 0.0 0.0
1.437125748502995 0.0 0.0
1.377245508982035 0.0 0.0
1.317365269461078 0.0 0.0
1.257485029940119 0.0 0.0
1.19760479041916 0.0 0.0
1.137724550898204 0.0 0.0
1.077844311377245 0.0 0.0
1.017964071856287 0.0 0.0
0.958083832335328 0.0 0.0
0.8982035928143723 0.0 0.0
0.8383233532934131 0.0 0.0
0.7784431137724539 0.0 0.0
0.7185628742514965 0.0 0.0
0.658682634730539 0.0 0.0
0.5988023952095816 0.0 0.0
0.5389221556886223 0.0 0.0
0.4790419161676631 0.0 0.0
0.4191616766467074 0.0 0.0
0.3592814371257482 0.0 0.0
0.2994011976047908 0.0 0.0
0.2395209580838316 0.0 0.0
0.1796407185628741 0.0 0.0
0.1197604790419167 0.0 0.0
0.05988023952095922 0.0 0.0
0.0 0.0588235294116454 0.0
0.0 0.1176470588233168 0.0
0.0 0.1764705882349203 0.0
0.0 0.2352941176465135 0.0
0.0 0.2941176470581066 0.0
0.0 0.3529411764696997 0.0
0.0 0.4117647058812929 0.0
0.0 0.4705882352928861 0.0
0.0 0.5294117647046425 0.0
0.0 0.5882352941165623 0.0
0.0 0.6470588235284821 0.0
0.0 0.7058823529404019 0.0
0.0 0.7647058823523216 0.0
0.0 0.8235294117642414 0.0
0.0 0.8823529411761613 0.0
0.0 0.941176470588081 0.0
9.496671432578891 0.5021202775764965 0.0
0.503328567417594 0.502120277573701 0.0
8.960949321310713 0.5028360638807292 0.0
1.039050678683441 0.5028360638815292 0.0
8.421726050444478 0.5013914029598455 0.0
1.578273949553219 0.5013914029599852 0.0
2.110012838156869 0.501717680037117 0.0
[...]
POINT_DATA 11134
VECTORS vector double
1.0 0.0 0.0
0.0 0.0 0.0
0.0 0.0 0.0
0.0 0.0 0.0
0.0 0.0 0.0
1.0 0.0 0.0
0.0 0.0 0.0
0.0 0.0 0.0
0.0 0.0 0.0
0.0 0.0 0.0
0.0 0.0 0.0
0.0 0.0 0.0
0.0 0.0 0.0
0.0 0.0 0.0
0.0 0.0 0.0
0.0 0.0 0.0
0.0 0.0 0.0
0.0 0.0 0.0
0.0 0.0 0.0
0.0 0.0 0.0
0.0 0.0 0.0
0.0 0.0 0.0
0.0 0.0 0.0
0.0 0.0 0.0
0.0 0.0 0.0
0.0 0.0 0.0
0.0 0.0 0.0
0.0 0.0 0.0
0.0 0.0 0.0
0.0 0.0 0.0
0.0 0.0 0.0
0.0 0.0 0.0
0.0 0.0 0.0
0.0 0.0 0.0
0.0 0.0 0.0
0.0 0.0 0.0
0.0 0.0 0.0
0.0 0.0 0.0
0.0 0.0 0.0
0.0 0.0 0.0
0.0 0.0 0.0
0.0 0.0 0.0
0.0 0.0 0.0
0.0 0.0 0.0
0.0 0.0 0.0
0.0 0.0 0.0
0.0 0.0 0.0
0.0 0.0 0.0
0.0 0.0 0.0
0.0 0.0 0.0
0.0 0.0 0.0
0.0 0.0 0.0
0.0 0.0 0.0
0.0 0.0 0.0
0.0 0.0 0.0
0.0 0.0 0.0
0.0 0.0 0.0
0.0 0.0 0.0
0.0 0.0 0.0
0.0 0.0 0.0
0.0 0.0 0.0
0.0 0.0 0.0
0.0 0.0 0.0
0.0 0.0 0.0
0.0 0.0 0.0
0.0 0.0 0.0
0.0 0.0 0.0
0.0 0.0 0.0
0.0 0.0 0.0
0.0 0.0 0.0
0.0 0.0 0.0
0.0 0.0 0.0
0.0 0.0 0.0
0.0 0.0 0.0
0.0 0.0 0.0
0.0 0.0 0.0
0.0 0.0 0.0
0.0 0.0 0.0
0.0 0.0 0.0
0.0 0.0 0.0
0.0 0.0 0.0
0.0 0.0 0.0
0.0 0.0 0.0
0.0 0.0 0.0
0.0 0.0 0.0
0.0 0.0 0.0
0.0 0.0 0.0
0.0 0.0 0.0
0.0 0.0 0.0
0.0 0.0 0.0
0.0 0.0 0.0
0.0 0.0 0.0
0.0 0.0 0.0
0.0 0.0 0.0
0.0 0.0 0.0
0.0 0.0 0.0
0.0 0.0 0.0
0.0 0.0 0.0
0.0 0.0 0.0
0.0 0.0 0.0
0.0 0.0 0.0
0.0 0.0 0.0
0.0 0.0 0.0
0.0 0.0 0.0
0.0 0.0 0.0
0.0 0.0 0.0
0.0 0.0 0.0
0.0 0.0 0.0
0.0 0.0 0.0
0.0 0.0 0.0
0.0 0.0 0.0
0.0 0.0 0.0
0.0 0.0 0.0
0.0 0.0 0.0
0.0 0.0 0.0
0.0 0.0 0.0
0.0 0.0 0.0
0.0 0.0 0.0
0.0 0.0 0.0
0.0 0.0 0.0
0.0 0.0 0.0
0.0 0.0 0.0
0.0 0.0 0.0
0.0 0.0 0.0
0.0 0.0 0.0
0.0 0.0 0.0
0.0 0.0 0.0
0.0 0.0 0.0
0.0 0.0 0.0
0.0 0.0 0.0
0.0 0.0 0.0
0.0 0.0 0.0
0.0 0.0 0.0
0.0 0.0 0.0
0.0 0.0 0.0
0.0 0.0 0.0
0.0 0.0 0.0
0.0 0.0 0.0
0.0 0.0 0.0
0.0 0.0 0.0
0.0 0.0 0.0
0.0 0.0 0.0
0.0 0.0 0.0
0.0 0.0 0.0
0.0 0.0 0.0
0.0 0.0 0.0
0.0 0.0 0.0
0.0 0.0 0.0
0.0 0.0 0.0
0.0 0.0 0.0
0.0 0.0 0.0
0.0 0.0 0.0
0.0 0.0 0.0
0.0 0.0 0.0
0.0 0.0 0.0
0.0 0.0 0.0
0.0 0.0 0.0
0.0 0.0 0.0
0.0 0.0 0.0
0.0 0.0 0.0
0.0 0.0 0.0
0.0 0.0 0.0
0.0 0.0 0.0
0.0 0.0 0.0
0.0 0.0 0.0
0.0 0.0 0.0
0.0 0.0 0.0
0.0 0.0 0.0
0.0 0.0 0.0
0.0 0.0 0.0
0.0 0.0 0.0
0.608670157501 0.0933405140273 0.0
0.969095474453 0.0381765380279 0.0
1.10823828472 0.011965749885 0.0
1.14460048719 0.000851939899261 0.0
1.14718086305 -0.000460213038392 0.0
1.14514332158 -0.000585126500093 0.0
1.14594474335 -0.000294134976398 0.0
1.14570173869 -0.000152622946879 0.0
1.14572204776 -6.58448572088e-05 0.0
1.14542234389 -4.52789442255e-05 0.0
1.14532504169 -3.65994455093e-05 0.0
1.14545555942 -0.000139635961714 0.0
1.142982332 -0.00205940302972 0.0
1.11620227135 -0.00940610844719 0.0
0.987986423155 -0.0277105182336 0.0
0.605668559434 -0.0914463852434 0.0
0.0 0.0 0.0
0.0 0.0 0.0
0.0 0.0 0.0
0.0 0.0 0.0
0.0 0.0 0.0
0.0 0.0 0.0
0.0 0.0 0.0
0.0 0.0 0.0
0.0 0.0 0.0
0.0 0.0 0.0
0.0 0.0 0.0
0.0 0.0 0.0
0.0 0.0 0.0
0.0 0.0 0.0
0.0 0.0 0.0
0.0 0.0 0.0
0.0 0.0 0.0
0.0 0.0 0.0
0.0 0.0 0.0
0.0 0.0 0.0
0.0 0.0 0.0
0.0 0.0 0.0
0.0 0.0 0.0
0.0 0.0 0.0
0.0 0.0 0.0
0.0 0.0 0.0
0.0 0.0 0.0
0.0 0.0 0.0
0.0 0.0 0.0
0.0 0.0 0.0
0.0 0.0 0.0
0.0 0.0 0.0
0.0 0.0 0.0
0.0 0.0 0.0
0.0 0.0 0.0
0.0 0.0 0.0
0.0 0.0 0.0
0.0 0.0 0.0
0.0 0.0 0.0
0.0 0.0 0.0
0.0 0.0 0.0
0.0 0.0 0.0
0.0 0.0 0.0
0.0 0.0 0.0
0.0 0.0 0.0
0.0 0.0 0.0
0.0 0.0 0.0
0.0 0.0 0.0
0.0 0.0 0.0
0.0 0.0 0.0
0.0 0.0 0.0
0.0 0.0 0.0
0.0 0.0 0.0
0.0 0.0 0.0
0.0 0.0 0.0
0.0 0.0 0.0
0.0 0.0 0.0
0.0 0.0 0.0
0.0 0.0 0.0
0.0 0.0 0.0
0.0 0.0 0.0
0.0 0.0 0.0
0.0 0.0 0.0
0.0 0.0 0.0
0.0 0.0 0.0
0.0 0.0 0.0
0.0 0.0 0.0
0.0 0.0 0.0
0.0 0.0 0.0
0.0 0.0 0.0
0.0 0.0 0.0
0.0 0.0 0.0
0.0 0.0 0.0
0.0 0.0 0.0
0.0 0.0 0.0
0.0 0.0 0.0
0.0 0.0 0.0
0.0 0.0 0.0
0.0 0.0 0.0
0.0 0.0 0.0
0.0 0.0 0.0
0.0 0.0 0.0
0.0 0.0 0.0
0.0 0.0 0.0
0.0 0.0 0.0
0.0 0.0 0.0
0.0 0.0 0.0
0.0 0.0 0.0
0.0 0.0 0.0
0.0 0.0 0.0
0.0 0.0 0.0
0.0 0.0 0.0
0.0 0.0 0.0
0.0 0.0 0.0
0.0 0.0 0.0
0.0 0.0 0.0
0.0 0.0 0.0
0.0 0.0 0.0
0.0 0.0 0.0
0.0 0.0 0.0
0.0 0.0 0.0
0.0 0.0 0.0
0.0 0.0 0.0
0.0 0.0 0.0
0.0 0.0 0.0
0.0 0.0 0.0
0.0 0.0 0.0
0.0 0.0 0.0
0.0 0.0 0.0
0.0 0.0 0.0
0.0 0.0 0.0
0.0 0.0 0.0
0.0 0.0 0.0
0.0 0.0 0.0
0.0 0.0 0.0
0.0 0.0 0.0
0.0 0.0 0.0
0.0 0.0 0.0
0.0 0.0 0.0
0.0 0.0 0.0
0.0 0.0 0.0
0.0 0.0 0.0
0.0 0.0 0.0
0.0 0.0 0.0
0.0 0.0 0.0
0.0 0.0 0.0
0.0 0.0 0.0
0.0 0.0 0.0
0.0 0.0 0.0
0.0 0.0 0.0
0.0 0.0 0.0
0.0 0.0 0.0
0.0 0.0 0.0
0.0 0.0 0.0
0.0 0.0 0.0
0.0 0.0 0.0
0.0 0.0 0.0
0.0 0.0 0.0
0.0 0.0 0.0
0.0 0.0 0.0
0.0 0.0 0.0
0.0 0.0 0.0
0.0 0.0 0.0
0.0 0.0 0.0
0.0 0.0 0.0
0.0 0.0 0.0
0.0 0.0 0.0
0.0 0.0 0.0
0.0 0.0 0.0
0.0 0.0 0.0
0.0 0.0 0.0
0.0 0.0 0.0
0.0 0.0 0.0
0.0 0.0 0.0
0.0 0.0 0.0
0.0 0.0 0.0
0.0 0.0 0.0
0.0 0.0 0.0
0.0 0.0 0.0
0.0 0.0 0.0
0.0 0.0 0.0
0.0 0.0 0.0
0.0 0.0 0.0
0.0 0.0 0.0
0.0 0.0 0.0
0.0 0.0 0.0
1.0 0.0 0.0
1.0 0.0 0.0
1.0 0.0 0.0
1.0 0.0 0.0
1.0 0.0 0.0
1.0 0.0 0.0
1.0 0.0 0.0
1.0 0.0 0.0
1.0 0.0 0.0
1.0 0.0 0.0
1.0 0.0 0.0
1.0 0.0 0.0
1.0 0.0 0.0
1.0 0.0 0.0
1.0 0.0 0.0
1.0 0.0 0.0
1.14562335125 6.05943282539e-05 0.0
1.1233210583 0.000314478298629 0.0
1.14595343926 -0.000363976855394 0.0
1.14501383654 7.99433848818e-05 0.0
1.1463012999 0.000163292791771 0.0
1.14662106837 -0.00143411566459 0.0
1.14463022048 0.000473686717704 0.0
1.14397354595 -0.00013321780226 0.0
1.14279811516 -0.000321993695092 0.0
1.14361747351 0.000394454806369 0.0
1.14400961228 3.72819438223e-05 0.0
1.1444326304 1.91409137013e-05 0.0
1.14423099625 -1.42312692816e-05 0.0
1.14476535041 0.000542315809306 0.0
1.14458137862 0.000236332992764 0.0
1.14336862481 -4.26925796851e-05 0.0
1.14445855426 -0.00103694184557 0.0
1.14409960498 0.000576258870958 0.0
1.14475741926 0.00115876739521 0.0
1.14391615252 -0.00267535447624 0.0
1.1446213621 0.000396772340789 0.0
1.14555616745 0.00225943658903 0.0
1.14569352665 0.00146715875418 0.0
1.14525469341 4.52026517236e-05 0.0
1.14486356629 -0.000208383323517 0.0
1.14491972059 -0.000958880991919 0.0
1.14544640997 0.00147845304546 0.0
1.14192092946 0.00241721942325 0.0
1.14120791696 0.00219902586093 0.0
1.14249905101 0.000995192725926 0.0
1.14359857211 0.00018634759723 0.0
1.14330952313 -0.000142471565476 0.0
1.14282999203 0.000728574790735 0.0
1.14385105322 0.000571481306272 0.0
1.14293572701 0.00101807015278 0.0
1.14401700863 0.000529199492447 0.0
1.14233767804 -0.000433874653794 0.0
1.14351490173 0.00145038299259 0.0
1.1444744992 -0.000957748896775 0.0
1.14326047964 -8.01442351326e-05 0.0
1.14399827952 -0.00114501883008 0.0
1.1420569807 0.000245642279968 0.0
1.14333362607 -0.000467052593924 0.0
1.1426054056 8.96790495578e-05 0.0
1.14410651081 -0.00108074763469 0.0
1.14310025916 -0.00145588466962 0.0
1.14663792004 0.000449512703012 0.0
1.14737721296 0.00045087325235 0.0
1.14381179149 -0.000473910541833 0.0
1.14331022973 -0.00182178204063 0.0
1.14241031287 0.000612952964557 0.0
1.14594979162 -0.00158048642801 0.0
1.10302320867 -0.0775450269486 0.0
1.14478412961 -0.00143254747644 0.0
1.14436234526 -0.000252619210496 0.0
1.09718228526 0.0708889674926 0.0
1.14860687515 -0.00247878736397 0.0
1.14713252242 -0.00172897303166 0.0
1.14946458222 -0.00247324760636 0.0
1.14752754304 -0.00384234209287 0.0
1.14751464088 -0.00144961755871 0.0
1.14806811217 -0.00198899740531 0.0
1.14783994678 0.00409347289565 0.0
1.1438878338 0.00057580171912 0.0
1.14870856451 -0.00139560826267 0.0
1.14556015925 -0.0029584524458 0.0
1.14378886833 -0.00151344796953 0.0
1.14820725552 -0.0014516549166 0.0
1.1460932778 -0.000845736595932 0.0
1.14793980592 -0.00195979576129 0.0
1.14612116249 -0.00072213998253 0.0
1.14864415773 -0.00109595990269 0.0
1.14672281365 -0.000886948874886 0.0
1.14300606461 -0.00107126080419 0.0
1.1485172745 -0.00132599774777 0.0
1.14667697699 0.00301204670602 0.0
1.14650744989 -0.00188832753513 0.0
1.14456840197 0.00226111994794 0.0
1.14327993583 0.000561824417341 0.0
1.14271895575 -0.00279169478639 0.0
1.14515949098 0.000995547962474 0.0
1.14481617144 0.00365802620131 0.0
1.14378101199 -0.000942747140892 0.0
1.14307834324 0.00125770879136 0.0
1.14420743067 0.000997394269984 0.0
1.14650049635 -0.00344423999748 0.0
1.1437913089 0.000706785756232 0.0
1.15086053618 -0.0195487447846 0.0
1.14665499976 0.000364129883444 0.0
1.15371315385 0.0235652007624 0.0
1.14152059549 0.00266063401692 0.0
1.14124614742 0.00171074342589 0.0
1.03765353697 -0.00485416759063 0.0
1.14533990445 -0.00047785224777 0.0
1.14300663691 0.000429830558512 0.0
1.14390901916 -0.000697915063935 0.0
1.14404075309 -0.00022769444146 0.0
1.14433764692 0.000230049356103 0.0
1.14290989132 0.000129839808747 0.0
1.14422627436 0.000148845950729 0.0
1.14492450456 0.00031526770849 0.0
1.14681181162 0.000591644124002 0.0
1.14650800595 -0.000653471273488 0.0
1.1454834966 -0.000748012929804 0.0
1.1459028517 -0.000646885140929 0.0
1.14359703508 6.61303504657e-05 0.0
1.14450068505 -2.64251452328e-05 0.0
1.14324236506 0.000400977687828 0.0
1.14346248679 0.000843381431651 0.0
1.14321163417 -0.000141462796044 0.0
1.14524341255 0.000435602292764 0.0
1.12046391019 -0.00312449860292 0.0
1.11853859849 0.00203102589917 0.0
1.119919018 0.00212839053406 0.0
1.12215917792 -0.0015168781813 0.0
1.11973408801 0.00266656745314 0.0
1.12183637011 -0.00111887102381 0.0
1.12004614304 0.00409813998026 0.0
1.12111607859 -6.80702690711e-05 0.0
1.11887086432 0.000496967983834 0.0
1.12382657856 -0.00270524890914 0.0
1.11980596509 0.00140454140011 0.0
1.12185422858 0.000277911830985 0.0
1.12029051882 0.00454692037812 0.0
1.11894429657 0.00701363158932 0.0
1.11743280001 -0.00308434123818 0.0
1.11873122612 -0.0052623586509 0.0
1.11955226968 0.00605759504661 0.0
1.11391280668 0.00496857725932 0.0
1.11299162691 -0.00348269597199 0.0
1.1168651137 0.00178031345078 0.0
1.11612024646 -0.00120129295635 0.0
1.11583832472 -0.00211813903615 0.0
1.11839649242 0.0100260294216 0.0
1.11487876692 0.0106296782041 0.0
1.1137781135 -0.00384269388358 0.0
1.11730976836 -0.00221883325028 0.0
1.11664361958 0.00735236621589 0.0
1.11653306209 0.000613106430041 0.0
1.11655281474 -0.00553376084045 0.0
1.11707482558 -0.00182742998061 0.0
1.11626968635 0.00814062387063 0.0
1.11527648997 -0.00275484997011 0.0
1.11623840898 0.000355055022483 0.0
1.11641675196 0.00264618665329 0.0
1.11645804129 -0.00554414064183 0.0
1.1171583997 -0.00204944913095 0.0
1.11643802631 0.00262087895513 0.0
1.11852391688 -0.00699253092917 0.0
1.11812261895 0.0040430085571 0.0
1.11431674558 -0.00218555414472 0.0
1.14450835068 0.00031113523542 0.0
1.13822747229 -0.000910289620275 0.0
1.11377442953 -0.00400376400121 0.0
1.14276279101 0.00031054474643 0.0
1.14405936324 0.00114745647675 0.0
1.14396229625 -0.000251312473671 0.0
1.14343961454 -0.000185114988441 0.0
1.14425838499 -0.000179918374571 0.0
1.144382766 0.000165306273387 0.0
1.14503070632 1.93942307992e-05 0.0
1.14513813714 -0.000629743577149 0.0
1.14395696342 2.33628527895e-05 0.0
1.14447324531 0.000215200169752 0.0
1.14492780673 0.000279291659449 0.0
1.14617958471 -4.5556657923e-05 0.0
1.14645749309 4.90283343252e-05 0.0
1.10332824468 0.0013006801214 0.0
1.10458042799 0.00206422590811 0.0
1.11198551935 0.000448274821534 0.0
1.11157605965 -0.00284126815607 0.0
1.12703820248 -0.137781603473 0.0
1.11867327997 -0.00350331558442 0.0
1.10998030975 -0.000246290042631 0.0
1.11388668714 -0.00300116759099 0.0
1.10835219468 -0.000985378547403 0.0
1.10986821229 -0.00291732481015 0.0
1.10940618808 0.00290270487834 0.0
1.11234938568 -0.00252668370984 0.0
1.11125814421 -0.00154090442998 0.0
1.11168500418 -0.00180146663947 0.0
1.11765660692 0.00198638415197 0.0
1.13014889338 0.138463217078 0.0
1.11206095912 -0.00171545506128 0.0
1.11244852791 -0.00131961353903 0.0
1.11284153183 0.00283972354141 0.0
1.11357723658 0.000254883652008 0.0
1.10357376921 0.00195474344833 0.0
1.11311435547 0.00270606409739 0.0
1.10634427503 -0.00346406772954 0.0
1.14633845569 -0.00109635152638 0.0
1.14568670761 0.00115317692058 0.0
1.1057659159 -0.00280433821417 0.0
1.10781480137 -0.00188242703599 0.0
1.14535900572 0.000155985422037 0.0
1.1438792973 0.000358740870767 0.0
1.10451026723 0.00398827759054 0.0
1.1103991765 -0.000916395285705 0.0
1.1458919628 0.00139610909835 0.0
1.14696432175 -0.00116654476686 0.0
1.14333556733 0.000223506797992 0.0
1.14308473256 0.000317713850043 0.0
1.14476787266 -0.000337285095358 0.0
1.14384341067 0.00120870366875 0.0
1.14538942177 0.00013250789383 0.0
1.14425693983 0.000801790496363 0.0
1.14435192859 0.000967556638012 0.0
1.10178684826 0.00595458215671 0.0
1.08313580121 0.000151305151073 0.0
1.09183126205 -0.00203305654801 0.0
1.1072153939 0.00292523546283 0.0
1.09782350153 0.000640093914164 0.0
1.14442382309 -0.0525317172278 0.0
1.09765123443 -0.0022259597199 0.0
1.14345645026 0.0536792765935 0.0
1.14341955818 -3.62972757916e-05 0.0
1.14493470711 -0.00151733310177 0.0
1.14355542559 0.000853084097562 0.0
1.14304072407 -4.85347273447e-05 0.0
1.14474791845 -1.12992600881e-05 0.0
1.14430173963 -0.000462927676889 0.0
1.14412299527 0.00151829805867 0.0
1.14432139041 -0.000462087332063 0.0
1.14405244295 0.000323523408079 0.0
1.14654143963 0.000768293373276 0.0
1.14460136822 -0.00144636384739 0.0
1.14303489276 -0.000669126778567 0.0
1.14328533556 -3.56275487826e-06 0.0
1.14427928428 0.000275961448126 0.0
1.14306354735 0.00121085126162 0.0
1.1441425885 -0.000383250145126 0.0
1.14383431013 -0.000353932743319 0.0
1.14517186109 0.00132275096556 0.0
1.14729092367 0.000829409978023 0.0
1.14561653125 -0.00173118942417 0.0
1.1459334867 -0.00160958544586 0.0
1.14728203224 -0.000423002284429 0.0
1.14358391513 -0.000643090830363 0.0
1.1448584887 0.000821804365023 0.0
1.14197222144 -0.000144285846424 0.0
1.14435006124 0.00185350344764 0.0
1.14315532321 -4.56602442957e-05 0.0
1.14426349319 -0.00162394434822 0.0
1.13990334789 0.00926271444704 0.0
1.14559290292 0.000430073841844 0.0
1.14384567818 0.00136231034433 0.0
1.14495899495 0.000290890443039 0.0
1.14486005686 -0.0005269889524 0.0
1.09345507835 -0.0199154376175 0.0
1.02674635055 -0.0361889180425 0.0
1.14502767833 -0.000987371936592 0.0
1.0242046824 0.0360120338518 0.0
1.14527570523 0.00012703232671 0.0
1.14539840999 -0.000640031835286 0.0
1.12162228112 0.033388758902 0.0
1.14459684976 -0.000702862278115 0.0
1.14306252237 -0.000117935538087 0.0
1.14319917339 -0.000443846369778 0.0
1.14309485628 0.000162432952521 0.0
1.14501834577 0.000106438589426 0.0
1.14590433828 -0.00185124204137 0.0
1.1441583669 0.000492326725424 0.0
1.1451230553 -0.000221731925218 0.0
1.14183620565 -0.00152878015492 0.0
1.14555433489 0.00263587096402 0.0
1.14400543331 -0.00121349045005 0.0
1.14370155996 -0.000498402711545 0.0
1.14427814295 -0.00146011295155 0.0
1.14511072723 0.000449323811564 0.0
1.14475550619 -0.00156354422127 0.0
1.14522687516 0.000495814584703 0.0
1.14561268348 0.00066031207085 0.0
1.14507134124 -0.000323011267109 0.0
1.14539930048 -0.00106902526921 0.0
1.14660912515 5.56840467742e-06 0.0
1.14551414871 -0.000814024050537 0.0
1.14464102116 -0.00117815074728 0.0
1.14353101771 9.22682470155e-05 0.0
1.1337989588 -0.00856960140469 0.0
1.14337277817 0.000236810956399 0.0
1.02180981862 0.00527277055972 0.0
1.02032811074 -0.00342109024735 0.0
1.14440287617 -0.000332499214033 0.0
1.12752429766 -0.0377701902215 0.0
0.995294163704 0.00135145934515 0.0
0.995537725659 -0.00377422415112 0.0
0.974246588986 0.00420030376651 0.0
0.971573071074 0.00351046645105 0.0
0.973382328314 0.00314999236086 0.0
0.973946093819 0.00365526634668 0.0
0.972972857364 0.00453918513448 0.0
0.973889060063 0.00438193801471 0.0
0.972862997094 0.00355782976783 0.0
0.953538153151 0.00809887054446 0.0
0.949151833333 0.00411389124555 0.0
1.01456514398 -0.00386515106121 0.0
1.01833478272 0.000812419555084 0.0
1.03049718712 0.00168589496928 0.0
1.03280317109 -0.00834466783331 0.0
1.01074632978 0.00766271228708 0.0
1.01276484982 -0.0081851651287 0.0
0.978793174005 -0.0128179821889 0.0
0.977017307604 0.00142247134978 0.0
1.02601060578 0.00338884722235 0.0
1.03153025673 -0.00980456044702 0.0
1.03778496273 -0.00694375076322 0.0
1.03364735158 0.00282544750293 0.0
1.03528221259 -0.00684256583168 0.0
1.03287441287 0.00341101598305 0.0
1.03520549582 -0.00674230177107 0.0
1.03209421453 0.00484068985587 0.0
1.03521563236 -0.00739094844369 0.0
1.02517656487 0.0018909589945 0.0
1.01868904495 -0.00111123023072 0.0
1.14514828168 -0.000420394488727 0.0
1.07642400356 0.0310234054037 0.0
0.968226606413 -0.000968118253682 0.0
0.976674969445 0.00307765447375 0.0
0.985699025519 1.2798144055e-05 0.0
0.993590175359 0.00950726299404 0.0
1.14568990643 0.000262946694359 0.0
1.14420770219 -0.00139272195743 0.0
1.14618965994 -0.000561392383454 0.0
1.14545191459 -0.000718896348448 0.0
1.14452293061 0.000117472855758 0.0
1.14528080542 -0.0072391755185 0.0
0.980064363928 0.00302736382387 0.0
1.14194716969 -0.000627000861417 0.0
1.1439036777 -5.41517430575e-05 0.0
1.14360083003 -0.000284286104697 0.0
1.14429900285 -0.000556325210071 0.0
1.14376472403 -0.000194577130741 0.0
1.14471514589 -0.000191105909778 0.0
1.14415423805 -9.06677823645e-05 0.0
0.993935180084 0.00611690400247 0.0
0.970661276696 0.000865130512143 0.0
1.08860792946 -0.0994589118901 0.0
0.966766145696 -0.0034863934174 0.0
1.08879330329 0.0989584578286 0.0
0.9630909545 0.00350210933848 0.0
0.964403242415 0.00337241998721 0.0
0.945749264129 0.0132616279553 0.0
0.939997759739 -0.0094076954984 0.0
0.990079186779 0.0118627093217 0.0
0.994112358724 -0.00129906959561 0.0
0.946247889563 -0.0129940058006 0.0
0.947480073835 0.0140882168498 0.0
0.946100212527 -0.0129699526555 0.0
0.946546278628 0.0149918683338 0.0
0.946528378257 0.014929666469 0.0
0.933401436388 -0.00836985406988 0.0
0.941697462932 -0.000570680889313 0.0
0.939697042977 0.00934043916978 0.0
0.943262889142 -0.015352882073 0.0
0.938382912524 0.00934407721826 0.0
0.946320177975 -0.0126539109061 0.0
0.937544316371 0.00935068438022 0.0
0.944185927381 -0.0130908141625 0.0
0.94987253811 -0.00895178799875 0.0
1.14418664788 -5.99208292598e-05 0.0
1.14628204887 8.28146134128e-05 0.0
1.14585870941 0.000114004147381 0.0
1.14401901327 0.000163168073177 0.0
1.14279921354 0.000405625366114 0.0
1.14384307657 5.57259790936e-05 0.0
1.14428737598 -0.00018909524903 0.0
1.14290525378 -2.63027748202e-05 0.0
1.1438508045 -0.000386639328512 0.0
1.14484653132 -0.000685570592892 0.0
1.14449532936 -0.000528979259498 0.0
1.14342540826 0.000488474318228 0.0
1.14272556899 0.000492609738133 0.0
1.14166747918 0.0012740332814 0.0
1.14454975417 0.000419572264809 0.0
1.14375105143 0.000289752680388 0.0
1.14309604871 -0.000116134301729 0.0
1.14332612769 -6.93060165582e-05 0.0
1.14429229134 -0.00265673156675 0.0
1.14091807272 -0.000372844391081 0.0
1.14332868029 -0.000737433066991 0.0
1.14626988917 -0.000541854836684 0.0
1.14626131442 -0.00150929213666 0.0
0.880544459172 -0.00634465434333 0.0
0.876607282595 0.00494877472159 0.0
0.951527434848 -0.000465536862956 0.0
0.923088080695 0.00298890151473 0.0
0.886537201364 0.00943816346065 0.0
0.894794165781 -0.00837850754829 0.0
0.875199561424 0.00724311516024 0.0
0.876947968932 -0.00617731355814 0.0
0.875270793441 0.00650968017892 0.0
0.87890242075 -0.00643909827118 0.0
0.875260803626 0.00650397733586 0.0
0.876615563761 -0.00595382858786 0.0
0.876527093468 0.00458241431914 0.0
0.87163031129 -0.00619876134189 0.0
0.872911399581 0.00431228768812 0.0
1.14038766807 -0.000478147986888 0.0
1.14473738851 0.00183509455068 0.0
0.940815099448 -0.0164622709505 0.0
0.941952062223 0.0167242593266 0.0
1.01159343746 -0.00668892241306 0.0
1.14536137304 -0.000369280500966 0.0
1.14354765615 0.000372713996046 0.0
1.1433388238 -0.000310748260173 0.0
0.88630373337 -0.0161436886228 0.0
1.1446526592 0.000290694822093 0.0
1.1445475395 0.000188923114308 0.0
1.14506326628 0.00103745950532 0.0
1.14464947735 -9.24693982593e-06 0.0
1.14488495309 0.000355165938013 0.0
0.903768602111 -0.0055392121959 0.0
0.896981274253 0.0033838487043 0.0
0.903506087104 -0.00484478982458 0.0
0.900675019362 0.00182509524192 0.0
0.902548300043 0.00553057347367 0.0
0.904255423171 -0.00411851563831 0.0
0.948663591555 -0.00217861845809 0.0
0.946927500008 -0.0028776577341 0.0
0.954410816226 0.00250154687382 0.0
0.959407055635 0.00181103779115 0.0
0.926904808036 0.000184413113043 0.0