# vtk DataFile Version 2.0
2D Simulation Python
ASCII
DATASET UNSTRUCTURED_GRID
FIELD FieldData 1
NODES 1 2 int
11134 7299

POINTS 11134 double
0.0 1.0 0.0
1.725 1.0 0.0
8.275 1.0 0.0
10.0 1.0 0.0
10.0 0.0 0.0
0.0 0.0 0.0
0.05948275862057954 1.0 0.0
0.1189655172411507 1.0 0.0
0.1784482758617532 1.0 0.0
0.2379310344823185 1.0 0.0
0.2974137931028384 1.0 0.0
0.3568965517233564 1.0 0.0
0.4163793103438745 1.0 0.0
0.475862068964385 1.0 0.0
0.535344827584889 1.0 0.0
0.5948275862053855 1.0 0.0
0.654310344825882 1.0 0.0
0.7137931034463786 1.0 0.0
0.7732758620668752 1.0 0.0
0.8327586206874149 1.0 0.0
0.8922413793081027 1.0 0.0
0.9517241379289384 1.0 0.0
1.011206896549752 1.0 0.0
1.070689655170612 1.0 0.0
1.130172413791474 1.0 0.0
1.189655172412335 1.0 0.0
1.249137931033183 1.0 0.0
1.308620689654105 1.0 0.0
1.368103448274985 1.0 0.0
1.427586206895818 1.0 0.0
1.487068965516628 1.0 0.0
1.546551724137449 1.0 0.0
1.606034482758285 1.0 0.0
1.665517241379139 1.0 0.0
1.784545454545345 1.0 0.0
1.844090909090676 1.0 0.0
1.903636363635991 1.0 0.0
1.963181818181336 1.0 0.0
2.022727272726716 1.0 0.0
2.082272727272112 1.0 0.0
2.141818181817408 1.0 0.0
2.201363636362702 1.0 0.0
2.260909090908037 1.0 0.0
2.320454545453433 1.0 0.0
2.379999999998759 1.0 0.0
2.439545454544053 1.0 0.0
2.499090909089358 1.0 0.0
2.558636363634754 1.0 0.0
2.618181818180109 1.0 0.0
2.677727272725404 1.0 0.0
2.737272727270631 1.0 0.0
2.796818181815906 1.0 0.0
2.856363636361191 1.0 0.0
2.915909090906408 1.0 0.0
2.975454545451703 1.0 0.0
3.034999999997049 1.0 0.0
3.094545454542377 1.0 0.0
3.154090909087591 1.0 0.0
3.21363636363288 1.0 0.0
3.273181818178196 1.0 0.0
3.332727272723555 1.0 0.0
3.392272727268849 1.0 0.0
3.451818181814208 1.0 0.0
3.511363636359524 1.0 0.0
3.570909090904812 1.0 0.0
3.630454545450026 1.0 0.0
3.689999999995355 1.0 0.0
3.749545454540702 1.0 0.0
3.809090909085996 1.0 0.0
3.868636363631291 1.0 0.0
3.928181818176585 1.0 0.0
3.987727272721861 1.0 0.0
4.047272727267021 1.0 0.0
4.106818181812208 1.0 0.0
4.166363636357625 1.0 0.0
4.225909090903122 1.0 0.0
4.285454545448432 1.0 0.0
4.34499999999356 1.0 0.0
4.404545454538917 1.0 0.0
4.464090909084414 1.0 0.0
4.523636363629791 1.0 0.0
4.583181818174936 1.0 0.0
4.642727272720208 1.0 0.0
4.702272727265705 1.0 0.0
4.761818181811142 1.0 0.0
4.821363636356348 1.0 0.0
4.880909090901557 1.0 0.0
4.940454545446997 1.0 0.0
4.999999999992493 1.0 0.0
5.059545454538018 1.0 0.0
5.119090909083717 1.0 0.0
5.17863636362933 1.0 0.0
5.238181818174827 1.0 0.0
5.297727272720321 1.0 0.0
5.357272727265989 1.0 0.0
5.416818181811662 1.0 0.0
5.476363636357158 1.0 0.0
5.535909090902654 1.0 0.0
5.595454545448262 1.0 0.0
5.65499999999396 1.0 0.0
5.714545454539491 1.0 0.0
5.774090909085032 1.0 0.0
5.83363636363093 1.0 0.0
5.893181818176673 1.0 0.0
5.952727272722171 1.0 0.0
6.012272727267668 1.0 0.0
6.071818181813491 1.0 0.0
6.131363636359353 1.0 0.0
6.190909090904849 1.0 0.0
6.250454545450346 1.0 0.0
6.309999999996052 1.0 0.0
6.369545454541951 1.0 0.0
6.429090909087529 1.0 0.0
6.488636363633026 1.0 0.0
6.548181818178611 1.0 0.0
6.60772727272451 1.0 0.0
6.667272727270209 1.0 0.0
6.726818181815705 1.0 0.0
6.786363636361202 1.0 0.0
6.845909090907071 1.0 0.0
6.905454545452889 1.0 0.0
6.964999999998385 1.0 0.0
7.024545454543881 1.0 0.0
7.084090909089378 1.0 0.0
7.143636363634876 1.0 0.0
7.20318181818037 1.0 0.0
7.262727272725868 1.0 0.0
7.322272727271365 1.0 0.0
7.381818181816859 1.0 0.0
7.441363636362357 1.0 0.0
7.500909090907854 1.0 0.0
7.560454545453348 1.0 0.0
7.619999999998846 1.0 0.0
7.679545454544343 1.0 0.0
7.739090909089839 1.0 0.0
7.798636363635335 1.0 0.0
7.858181818180832 1.0 0.0
7.917727272726328 1.0 0.0
7.977272727271824 1.0 0.0
8.036818181817441 1.0 0.0
8.09636363636334 1.0 0.0
8.155909090909008 1.0 0.0
8.215454545454504 1.0 0.0
8.334482758620055 1.0 0.0
8.393965517240051 1.0 0.0
8.453448275859904 1.0 0.0
8.51293103448045 1.0 0.0
8.572413793100301 1.0 0.0
8.631896551720153 1.0 0.0
8.6913793103407 1.0 0.0
8.750862068961245 1.0 0.0
8.810344827581792 1.0 0.0
8.869827586202339 1.0 0.0
8.929310344822884 1.0 0.0
8.988793103443431 1.0 0.0
9.048275862063978 1.0 0.0
9.107758620684523 1.0 0.0
9.16724137930507 1.0 0.0
9.226724137925617 1.0 0.0
9.286206896546162 1.0 0.0
9.345689655167401 1.0 0.0
9.405172413788595 1.0 0.0
9.46465517240963 1.0 0.0
9.524137931030667 1.0 0.0
9.583620689651704 1.0 0.0
9.643103448272907 1.0 0.0
9.702586206894148 1.0 0.0
9.762068965515388 1.0 0.0
9.821551724136627 1.0 0.0
9.881034482757867 1.0 0.0
9.940517241378963 1.0 0.0
10.0 0.9411764705879904 0.0
10.0 0.882352941175982 0.0
10.0 0.8235294117645425 0.0
10.0 0.764705882353186 0.0
10.0 0.7058823529418295 0.0
10.0 0.6470588235304731 0.0
10.0 0.5882352941191167 0.0
10.0 0.5294117647077601 0.0
10.0 0.4705882352960771 0.0
10.0 0.4117647058840672 0.0
10.0 0.3529411764720576 0.0
10.0 0.2941176470600479 0.0
10.0 0.2352941176480381 0.0
10.0 0.1764705882360285 0.0
10.0 0.1176470588240187 0.0
10.0 0.05882352941200908 0.0
9.940119760479043 0.0 0.0
9.880239520958083 0.0 0.0
9.820359281437126 0.0 0.0
9.760479041916167 0.0 0.0
9.70059880239521 0.0 0.0
9.640718562874252 0.0 0.0
9.580838323353293 0.0 0.0
9.520958083832335 0.0 0.0
9.461077844311376 0.0 0.0
9.401197604790418 0.0 0.0
9.34131736526946 0.0 0.0
9.281437125748502 0.0 0.0
9.221556886227543 0.0 0.0
9.161676646706585 0.0 0.0
9.101796407185628 0.0 0.0
9.041916167664668 0.0 0.0
8.982035928143711 0.0 0.0
8.922155688622752 0.0 0.0
8.862275449101794 0.0 0.0
8.802395209580837 0.0 0.0
8.742514970059878 0.0 0.0
8.68263473053892 0.0 0.0
8.622754491017961 0.0 0.0
8.562874251497004 0.0 0.0
8.502994011976044 0.0 0.0
8.443113772455087 0.0 0.0
8.38323353293413 0.0 0.0
8.32335329341317 0.0 0.0
8.263473053892213 0.0 0.0
8.203592814371254 0.0 0.0
8.143712574850296 0.0 0.0
8.083832335329337 0.0 0.0
8.02395209580838 0.0 0.0
7.964071856287422 0.0 0.0
7.904191616766464 0.0 0.0
7.844311377245505 0.0 0.0
7.784431137724548 0.0 0.0
7.72455089820359 0.0 0.0
7.664670658682631 0.0 0.0
7.604790419161674 0.0 0.0
7.544910179640715 0.0 0.0
7.485029940119757 0.0 0.0
7.425149700598799 0.0 0.0
7.36526946107784 0.0 0.0
7.305389221556883 0.0 0.0
7.245508982035925 0.0 0.0
7.185628742514966 0.0 0.0
7.125748502994009 0.0 0.0
7.065868263473051 0.0 0.0
7.005988023952092 0.0 0.0
6.946107784431135 0.0 0.0
6.886227544910177 0.0 0.0
6.826347305389219 0.0 0.0
6.766467065868261 0.0 0.0
6.706586826347303 0.0 0.0
6.646706586826344 0.0 0.0
6.586826347305387 0.0 0.0
6.526946107784428 0.0 0.0
6.46706586826347 0.0 0.0
6.407185628742512 0.0 0.0
6.347305389221554 0.0 0.0
6.287425149700596 0.0 0.0
6.227544910179638 0.0 0.0
6.16766467065868 0.0 0.0
6.107784431137722 0.0 0.0
6.047904191616764 0.0 0.0
5.988023952095805 0.0 0.0
5.928143712574848 0.0 0.0
5.868263473053889 0.0 0.0
5.808383233532932 0.0 0.0
5.748502994011973 0.0 0.0
5.688622754491016 0.0 0.0
5.628742514970057 0.0 0.0
5.568862275449099 0.0 0.0
5.508982035928141 0.0 0.0
5.449101796407183 0.0 0.0
5.389221556886225 0.0 0.0
5.329341317365267 0.0 0.0
5.269461077844309 0.0 0.0
5.209580838323351 0.0 0.0
5.149700598802393 0.0 0.0
5.089820359281434 0.0 0.0
5.029940119760477 0.0 0.0
4.970059880239518 0.0 0.0
4.91017964071856 0.0 0.0
4.850299401197602 0.0 0.0
4.790419161676644 0.0 0.0
4.730538922155686 0.0 0.0
4.670658682634729 0.0 0.0
4.610778443113769 0.0 0.0
4.550898203592812 0.0 0.0
4.491017964071854 0.0 0.0
4.431137724550896 0.0 0.0
4.371257485029938 0.0 0.0
4.31137724550898 0.0 0.0
4.251497005988022 0.0 0.0
4.191616766467064 0.0 0.0
4.131736526946106 0.0 0.0
4.071856287425147 0.0 0.0
4.01197604790419 0.0 0.0
3.952095808383231 0.0 0.0
3.892215568862274 0.0 0.0
3.832335329341316 0.0 0.0
3.772455089820358 0.0 0.0
3.712574850299399 0.0 0.0
3.652694610778441 0.0 0.0
3.592814371257483 0.0 0.0
3.532934131736526 0.0 0.0
3.473053892215567 0.0 0.0
3.41317365269461 0.0 0.0
3.353293413173652 0.0 0.0
3.293413173652693 0.0 0.0
3.233532934131736 0.0 0.0
3.173652694610777 0.0 0.0
3.113772455089819 0.0 0.0
3.053892215568861 0.0 0.0
2.994011976047903 0.0 0.0
2.934131736526945 0.0 0.0
2.874251497005988 0.0 0.0
2.814371257485028 0.0 0.0
2.754491017964071 0.0 0.0
2.694610778443113 0.0 0.0
2.634730538922155 0.0 0.0
2.574850299401197 0.0 0.0
2.514970059880238 0.0 0.0
2.455089820359281 0.0 0.0
2.395209580838323 0.0 0.0
2.335329341317365 0.0 0.0
2.275449101796406 0.0 0.0
2.215568862275448 0.0 0.0
2.15568862275449 0.0 0.0
2.095808383233532 0.0 0.0
2.035928143712574 0.0 0.0
1.976047904191615 0.0 0.0
1.916167664670658 0.0 0.0
1.8562874251497 0.0 0.0
1.796407185628741 0.0 0.0
1.736526946107784 0.0 0.0
1.676646706586826 0.0 0.0
1.616766467065867 0.0 0.0
1.55688622754491 0.0 0.0
1.49700598802395 0.0 0.0
1.437125748502995 0.0 0.0
1.377245508982035 0.0 0.0
1.317365269461078 0.0 0.0
1.257485029940119 0.0 0.0
1.19760479041916 0.0 0.0
1.137724550898204 0.0 0.0
1.077844311377245 0.0 0.0
1.017964071856287 0.0 0.0
0.958083832335328 0.0 0.0
0.8982035928143723 0.0 0.0
0.8383233532934131 0.0 0.0
0.7784431137724539 0.0 0.0
0.7185628742514965 0.0 0.0
0.658682634730539 0.0 0.0
0.5988023952095816 0.0 0.0
0.5389221556886223 0.0 0.0
0.4790419161676631 0.0 0.0
0.4191616766467074 0.0 0.0
0.3592814371257482 0.0 0.0
0.2994011976047908 0.0 0.0
0.2395209580838316 0.0 0.0
0.1796407185628741 0.0 0.0
0.1197604790419167 0.0 0.0
0.05988023952095922 0.0 0.0
0.0 0.0588235294116454 0.0
0.0 0.1176470588233168 0.0
0.0 0.1764705882349203 0.0
0.0 0.2352941176465135 0.0
0.0 0.2941176470581066 0.0
0.0 0.3529411764696997 0.0
0.0 0.4117647058812929 0.0
0.0 0.4705882352928861 0.0
0.0 0.5294117647046425 0.0
0.0 0.5882352941165623 0.0
0.0 0.6470588235284821 0.0
0.0 0.7058823529404019 0.0
0.0 0.7647058823523216 0.0
0.0 0.8235294117642414 0.0
0.0 0.8823529411761613 0.0
0.0 0.941176470588081 0.0
9.496671432578891 0.5021202775764965 0.0
0.503328567417594 0.502120277573701 0.0
8.960949321310713 0.5028360638807294 0.0
1.039050678683441 0.5028360638815293 0.0
8.421726050444477 0.5013914029598456 0.0
1.578273949553219 0.5013914029599852 0.0
2.110012838156869 0.501717680037117 0.0
[...]
POINT_DATA 11134
VECTORS vector double
1.0 0.0 0.0
0.0 0.0 0.0
0.0 0.0 0.0
0.0 0.0 0.0
1.14545768936 -2.68590305782e-05 0.0
1.0 0.0 0.0
0.0 0.0 0.0
0.0 0.0 0.0
0.0 0.0 0.0
0.0 0.0 0.0
0.0 0.0 0.0
0.0 0.0 0.0
0.0 0.0 0.0
0.0 0.0 0.0
0.0 0.0 0.0
0.0 0.0 0.0
0.0 0.0 0.0
0.0 0.0 0.0
0.0 0.0 0.0
0.0 0.0 0.0
0.0 0.0 0.0
0.0 0.0 0.0
0.0 0.0 0.0
0.0 0.0 0.0
0.0 0.0 0.0
0.0 0.0 0.0
0.0 0.0 0.0
0.0 0.0 0.0
0.0 0.0 0.0
0.0 0.0 0.0
0.0 0.0 0.0
0.0 0.0 0.0
0.0 0.0 0.0
0.0 0.0 0.0
0.0 0.0 0.0
0.0 0.0 0.0
0.0 0.0 0.0
0.0 0.0 0.0
0.0 0.0 0.0
0.0 0.0 0.0
0.0 0.0 0.0
0.0 0.0 0.0
0.0 0.0 0.0
0.0 0.0 0.0
0.0 0.0 0.0
0.0 0.0 0.0
0.0 0.0 0.0
0.0 0.0 0.0
0.0 0.0 0.0
0.0 0.0 0.0
0.0 0.0 0.0
0.0 0.0 0.0
0.0 0.0 0.0
0.0 0.0 0.0
0.0 0.0 0.0
0.0 0.0 0.0
0.0 0.0 0.0
0.0 0.0 0.0
0.0 0.0 0.0
0.0 0.0 0.0
0.0 0.0 0.0
0.0 0.0 0.0
0.0 0.0 0.0
0.0 0.0 0.0
0.0 0.0 0.0
0.0 0.0 0.0
0.0 0.0 0.0
0.0 0.0 0.0
0.0 0.0 0.0
0.0 0.0 0.0
0.0 0.0 0.0
0.0 0.0 0.0
0.0 0.0 0.0
0.0 0.0 0.0
0.0 0.0 0.0
0.0 0.0 0.0
0.0 0.0 0.0
0.0 0.0 0.0
0.0 0.0 0.0
0.0 0.0 0.0
0.0 0.0 0.0
0.0 0.0 0.0
0.0 0.0 0.0
0.0 0.0 0.0
0.0 0.0 0.0
0.0 0.0 0.0
0.0 0.0 0.0
0.0 0.0 0.0
0.0 0.0 0.0
0.0 0.0 0.0
0.0 0.0 0.0
0.0 0.0 0.0
0.0 0.0 0.0
0.0 0.0 0.0
0.0 0.0 0.0
0.0 0.0 0.0
0.0 0.0 0.0
0.0 0.0 0.0
0.0 0.0 0.0
0.0 0.0 0.0
0.0 0.0 0.0
0.0 0.0 0.0
0.0 0.0 0.0
0.0 0.0 0.0
0.0 0.0 0.0
0.0 0.0 0.0
0.0 0.0 0.0
0.0 0.0 0.0
0.0 0.0 0.0
0.0 0.0 0.0
0.0 0.0 0.0
0.0 0.0 0.0
0.0 0.0 0.0
0.0 0.0 0.0
0.0 0.0 0.0
0.0 0.0 0.0
0.0 0.0 0.0
0.0 0.0 0.0
0.0 0.0 0.0
0.0 0.0 0.0
0.0 0.0 0.0
0.0 0.0 0.0
0.0 0.0 0.0
0.0 0.0 0.0
0.0 0.0 0.0
0.0 0.0 0.0
0.0 0.0 0.0
0.0 0.0 0.0
0.0 0.0 0.0
0.0 0.0 0.0
0.0 0.0 0.0
0.0 0.0 0.0
0.0 0.0 0.0
0.0 0.0 0.0
0.0 0.0 0.0
0.0 0.0 0.0
0.0 0.0 0.0
0.0 0.0 0.0
0.0 0.0 0.0
0.0 0.0 0.0
0.0 0.0 0.0
0.0 0.0 0.0
0.0 0.0 0.0
0.0 0.0 0.0
0.0 0.0 0.0
0.0 0.0 0.0
0.0 0.0 0.0
0.0 0.0 0.0
0.0 0.0 0.0
0.0 0.0 0.0
0.0 0.0 0.0
0.0 0.0 0.0
0.0 0.0 0.0
0.0 0.0 0.0
0.0 0.0 0.0
0.0 0.0 0.0
0.0 0.0 0.0
0.0 0.0 0.0
0.0 0.0 0.0
0.0 0.0 0.0
0.0 0.0 0.0
0.0 0.0 0.0
0.0 0.0 0.0
0.0 0.0 0.0
0.0 0.0 0.0
0.0 0.0 0.0
0.0 0.0 0.0
0.0 0.0 0.0
0.0 0.0 0.0
0.0 0.0 0.0
0.0 0.0 0.0
0.339919476332 0.0565679300243 0.0
0.619102211765 0.0401717417224 0.0
0.820234260719 0.0263041895282 0.0
0.974945409165 0.0128862705585 0.0
1.07453669695 0.00758641812442 0.0
1.11128596441 0.00665819525761 0.0
1.13135022275 0.00215643074353 0.0
1.14193985808 0.000815507862331 0.0
1.14505704475 0.000314875015423 0.0
1.146045147 3.25034100491e-05 0.0
1.14619483839 -7.22433161687e-05 0.0
1.14631492389 -0.000101409185194 0.0
1.14623308073 -4.39773781198e-05 0.0
1.14603767673 2.64091837605e-06 0.0
1.14661002278 -4.33710098305e-05 0.0
1.14619418972 -7.42559504251e-05 0.0
1.14605589671 -1.15085773366e-05 0.0
1.14601838492 1.27903030816e-05 0.0
1.14598224377 -2.86188551852e-05 0.0
1.14590633458 7.26072415731e-06 0.0
1.14581310378 -4.28759660647e-05 0.0
1.1456173358 -1.70979602563e-05 0.0
1.1459206795 -2.25123827061e-06 0.0
1.14549642122 -1.30169570661e-05 0.0
1.14583258104 1.48063573802e-05 0.0
1.14563883923 -3.10082609507e-05 0.0
1.14550558789 9.96744781858e-06 0.0
1.14587454924 2.53896905336e-05 0.0
1.14568808862 -2.55217465901e-05 0.0
1.14562217458 2.99671748188e-06 0.0
1.1456021017 -7.26984536917e-06 0.0
1.14555583321 -2.57167878465e-05 0.0
1.14545139304 -1.63857291036e-05 0.0
1.14582209683 2.72960479429e-05 0.0
1.14552454391 -1.62957977803e-05 0.0
1.14545208488 -1.94242597965e-05 0.0
1.1454329534 2.69511473401e-05 0.0
1.14538202366 -3.8951788426e-05 0.0
1.14529097242 -3.41107538109e-05 0.0
1.14553795261 -1.19175848441e-05 0.0
1.14517070645 1.44157646317e-05 0.0
1.14500262441 -8.69464358148e-05 0.0
1.14491476042 5.8838981949e-05 0.0
1.14498364413 1.68743367662e-05 0.0
1.14491376298 -9.27466977574e-05 0.0
1.14486435357 7.44006465461e-05 0.0
1.1450019011 2.9340100294e-07 0.0
1.14518480596 -3.01022020715e-06 0.0
1.14487211762 -3.93631113535e-05 0.0
1.145062914 -4.01971420475e-06 0.0
1.14410527245 7.64282759465e-07 0.0
1.14496441388 2.63895993977e-06 0.0
1.1447733521 -2.52105027784e-05 0.0
1.14470273274 -1.83183207705e-05 0.0
1.14479718336 4.42256248492e-05 0.0
1.14483448104 -1.9464355487e-05 0.0
1.14498529544 -1.5277912307e-05 0.0
1.14456834565 -3.84462789294e-05 0.0
1.14486183518 8.98484358468e-06 0.0
1.14381984108 1.74522189143e-06 0.0
1.14471576172 -3.8019159296e-05 0.0
1.14439810329 4.63325103441e-06 0.0
1.14446278493 2.08133058227e-06 0.0
1.14449877371 5.28800325503e-06 0.0
1.14453732448 2.7984268201e-05 0.0
1.14472349809 -3.93711714632e-05 0.0
1.14436301989 -5.51073013114e-06 0.0
1.14481394297 2.68615706052e-05 0.0
1.14382797959 3.63044668562e-06 0.0
1.14461256586 -3.37798464394e-05 0.0
1.14433922485 -1.62026580343e-07 0.0
1.14431109001 -3.77960641235e-05 0.0
1.14433121356 3.78518912828e-05 0.0
1.14438719243 6.17062061348e-06 0.0
1.14454117543 -2.86581977629e-05 0.0
1.14430097511 3.14886277411e-05 0.0
1.14471682246 -4.31780473907e-05 0.0
1.14362589502 1.21348699957e-05 0.0
1.14448916044 -2.74276598929e-07 0.0
1.14437260558 4.19908282942e-05 0.0
1.14442054231 -3.4421884661e-05 0.0
1.14440989788 2.63420525018e-05 0.0
1.14451730918 4.97074026611e-05 0.0
1.14455955917 -3.01011132976e-05 0.0
1.14483536299 3.80557038904e-05 0.0
1.14456621483 -2.87101149119e-05 0.0
1.14436246548 -6.96295798499e-06 0.0
1.14445919748 -2.85100111465e-05 0.0
1.14441430973 2.31700861409e-05 0.0
1.14466557723 5.45817874792e-05 0.0
1.14476386982 1.26427432938e-05 0.0
1.14468884958 -4.89738920183e-05 0.0
1.14462410929 1.93057168743e-05 0.0
1.14475034657 2.66593171065e-05 0.0
1.14469756121 -6.34919011363e-05 0.0
1.14451547059 -5.36649907837e-06 0.0
1.14445032303 -3.57806324394e-06 0.0
1.14441190614 -1.58577940684e-05 0.0
1.14435270692 -2.34956370797e-05 0.0
1.14440401371 -7.54258749701e-05 0.0
1.14383306436 -1.00260287352e-05 0.0
1.14390615462 2.23352729509e-05 0.0
1.143822259 2.60910293324e-05 0.0
1.14410947068 5.32749869328e-05 0.0
1.14452884189 -1.57646291858e-05 0.0
1.14421433249 2.23775104893e-06 0.0
1.14424858861 8.80996151992e-06 0.0
1.14429394688 1.01757387263e-05 0.0
1.14415612189 -6.75086642023e-05 0.0
1.14440185932 4.30918931162e-05 0.0
1.14442409677 1.42496892695e-05 0.0
1.14356244176 -1.07985538964e-05 0.0
1.14459811861 3.35796986633e-05 0.0
1.1442824803 -1.079776019e-05 0.0
1.14448229196 1.84765866478e-05 0.0
1.14434546156 1.1226902749e-06 0.0
1.14428202071 -5.16247001075e-05 0.0
1.14429533604 5.74780444334e-05 0.0
1.14435429114 -1.22057997863e-05 0.0
1.14457921776 1.7336657107e-05 0.0
1.1437552251 -8.05963493282e-06 0.0
1.14487209199 1.58301900157e-05 0.0
1.14436512528 -3.45923280841e-05 0.0
1.14472674842 6.16028671595e-05 0.0
1.14459952864 -1.73774254889e-05 0.0
1.14450254345 -3.89416151314e-05 0.0
1.14443448323 2.6107859939e-05 0.0
1.14442389257 -1.15115499239e-05 0.0
1.14468749146 3.39272649148e-05 0.0
1.14384521121 -5.73574852073e-06 0.0
1.14493852536 2.94296631158e-06 0.0
1.14453285297 1.16122236747e-05 0.0
1.14487557677 3.33316526314e-05 0.0
1.14470152947 -6.99021069203e-06 0.0
1.14470572647 5.10817486139e-06 0.0
1.14476951519 2.6925250188e-05 0.0
1.14479793404 2.59431183555e-05 0.0
1.14516171457 6.2803257874e-05 0.0
1.14446246647 -7.14991918541e-06 0.0
1.14544018296 2.48701353053e-05 0.0
1.14530514361 4.13924508027e-05 0.0
1.14573258133 3.82495377348e-05 0.0
1.14569261556 2.15278761274e-05 0.0
1.14570114213 -4.29859943863e-05 0.0
1.14559329809 8.93093681528e-06 0.0
1.14557585342 -2.24117491446e-05 0.0
1.14557660245 -0.000100910209854 0.0
1.14432331714 1.67831745996e-05 0.0
1.14526100786 -0.000114585002848 0.0
1.14442505429 -5.0448352527e-05 0.0
1.14421908754 -0.000224984086279 0.0
1.14307245918 -0.000204026383862 0.0
1.14210200404 -0.000280644279976 0.0
1.14078504978 -0.000145093566094 0.0
1.13941197084 -0.000516451364203 0.0
1.13762918322 -0.000392361238466 0.0
1.13509457519 -0.000355107952478 0.0
1.13298464456 -0.000588321896359 0.0
1.12926507268 -0.00102468795236 0.0
1.12528442243 -0.000630393743712 0.0
1.12095539362 -0.00132232548633 0.0
1.11676266004 -0.00133162858204 0.0
1.11047104268 -0.00112587817824 0.0
1.10550166118 -0.00134796889215 0.0
1.09752619081 -0.00217891089318 0.0
1.08958914365 -0.00138024638054 0.0
1.08225572406 -0.00175942918295 0.0
1.07623066021 -0.00141769892887 0.0
1.06786976026 -0.00131535819738 0.0
1.06220193262 -0.0016808375177 0.0
1.05410191426 -0.00257221809204 0.0
1.04654121474 -0.000840799649948 0.0
1.04104936645 -0.000864230427607 0.0
1.0355947886 -0.00244125467625 0.0
1.02780935057 -0.000670586785105 0.0
1.02284037117 -0.0018165803841 0.0
1.01661422232 -0.00079548203848 0.0
1.01219145803 -0.00106773093126 0.0
1.00846253325 -0.000848136705318 0.0
1.00462760962 -0.000628249730618 0.0
1.00260980269 -0.000359851820297 0.0
1.00096640853 -0.00023662118372 0.0
1.0 0.0 0.0
1.0 0.0 0.0
1.0 0.0 0.0
1.0 0.0 0.0
1.0 0.0 0.0
1.0 0.0 0.0
1.0 0.0 0.0
1.0 0.0 0.0
1.0 0.0 0.0
1.0 0.0 0.0
1.0 0.0 0.0
1.0 0.0 0.0
1.0 0.0 0.0
1.0 0.0 0.0
1.0 0.0 0.0
1.0 0.0 0.0
1.14455919971 -0.000159051742523 0.0
1.07419516517 -0.0658470028429 0.0
1.14396094725 -0.000446075741616 0.0
1.15095116771 -0.0535383606341 0.0
1.14324756158 -0.000316909454681 0.0
1.14981156937 -0.00964203828346 0.0
1.14494891959 -0.00205389156618 0.0
1.14366302233 -0.000544852742801 0.0
1.14467555673 0.00170571007333 0.0
1.14315492392 -0.000476233829516 0.0
1.1425270947 0.00018270638422 0.0
1.14357018084 -0.000350255147946 0.0
1.1434660285 -0.000170096066468 0.0
1.14307146912 -0.000260607258003 0.0
1.14343946846 0.000234554573583 0.0
1.14372045358 0.000912007556438 0.0
1.1422386371 0.000386518596046 0.0
1.14210119249 -0.00130851153346 0.0
1.09550696433 -0.000132627236028 0.0
1.17580415176 -0.0839344011181 0.0
1.14666661583 -9.54035001919e-05 0.0
1.07794354264 -0.0384841670635 0.0
1.09442616671 -0.000826546902213 0.0
1.12162684552 -0.0170414015502 0.0
1.14512029546 0.000303302880058 0.0
1.09311246519 0.00105423318564 0.0
1.09612937705 -0.000743549728016 0.0
1.0936171256 0.00183886406015 0.0
1.0937981204 -0.000274428649688 0.0
1.14532092114 0.000168052353133 0.0
1.14542013906 7.38972339668e-05 0.0
1.09243164647 0.00276961188822 0.0
1.09311745492 0.000910278145165 0.0
1.09339832854 0.000255295045469 0.0
1.0935748797 0.000131567986965 0.0
1.09335332133 0.00103763784151 0.0
1.0894296878 0.000487877189879 0.0
1.09006763252 0.00172214228239 0.0
1.14522609444 -7.68319524139e-05 0.0
1.14511969151 -0.000123527819454 0.0
1.14537105233 0.000118101271523 0.0
1.14553573604 0.000570461089939 0.0
1.14726883536 0.000193602962811 0.0
1.1455211637 -0.000244956895697 0.0
1.14544579666 -5.49267699285e-05 0.0
1.14537460845 -0.00353208526005 0.0
1.13404006982 -0.0241457433756 0.0
1.14583407511 -0.000215600613126 0.0
1.14531466787 1.78241560268e-05 0.0
1.14488127856 -0.000597036495112 0.0
1.07068305723 -0.00159264775565 0.0
1.07065354176 -0.000409950099675 0.0
1.10000173694 -0.113713987922 0.0
1.06437289508 0.00180125154392 0.0
1.14595743434 -6.73534690638e-05 0.0
1.01636323819 -0.0255052483848 0.0
1.0131639974 -0.000945220882846 0.0
1.07764954579 -0.0392526787259 0.0
0.9972552277 -0.00215342733911 0.0
1.0009331152 -0.000796917144016 0.0
1.14527414321 0.000144735692117 0.0
1.14531485183 9.43333919896e-05 0.0
1.14517494598 -1.15497279081e-05 0.0
1.14413442238 0.000145202422983 0.0
1.01270578834 -0.00262123612983 0.0
1.01421314486 -0.00139126041806 0.0
1.01119464416 0.00328737733551 0.0
1.01267478086 -0.00282832402378 0.0
1.0132452788 4.4662303861e-05 0.0
1.01217855809 -0.00239613450477 0.0
1.01289509592 0.000150638634467 0.0
1.01273447956 -0.00270517239024 0.0
1.01303331626 0.000646999727937 0.0
1.14484775279 0.000142711146684 0.0
1.14514926821 0.000173715967053 0.0
1.14537283684 -0.00017686619801 0.0
1.14626106387 0.000670042859694 0.0
1.14530647045 -0.000193980131297 0.0
1.00553760193 0.00302235641965 0.0
1.00555627258 -0.000557547802474 0.0
1.14663457046 -0.00089916452358 0.0
1.14585107371 -0.00018365407194 0.0
1.14620523879 -0.000150674519219 0.0
1.09868065417 -0.0304212753929 0.0
1.14571989634 -0.000204328821802 0.0
1.1415056004 -0.00778318276695 0.0
1.01207507175 0.00194082024074 0.0
1.174904523 -0.111209939428 0.0
1.14622387135 -3.5307432658e-05 0.0
1.04214539056 -0.0275168391208 0.0
0.963844618285 0.000656240693134 0.0
1.14523797496 -0.000310726471557 0.0
1.01904471685 -0.0437050975492 0.0
1.14299638406 0.000160983504706 0.0
1.14354878961 -0.000597085566892 0.0
1.14170849969 -0.000945783322835 0.0
1.14231533134 0.000734972808154 0.0
1.1434896742 0.000152302605122 0.0
1.14240370126 0.000612681309471 0.0
1.14307417208 -0.000348948215244 0.0
1.14322892872 -3.77568557548e-06 0.0
1.14393126856 -0.000330483087652 0.0
1.15428641075 -0.0225914222885 0.0
1.14372751282 9.05640130493e-05 0.0
1.14625312193 -0.00400163561988 0.0
1.14265283117 0.00100555834231 0.0
1.1434562661 0.000400560078653 0.0
1.14569991526 0.000950817934205 0.0
1.14331441993 -0.000289321286258 0.0
1.13186131717 -0.0617902638906 0.0
1.14437186466 -0.00025880899427 0.0
1.14593648202 -7.92373933766e-05 0.0
1.11322150593 -0.0178976990118 0.0
1.14449897993 9.86373932421e-05 0.0
1.14441083929 -9.21906455767e-05 0.0
1.14441364854 8.06141898604e-05 0.0
1.1445057752 -8.5277274961e-05 0.0
1.14453799256 0.000266929733639 0.0
1.14457256528 -0.000199715032846 0.0
1.14566185843 0.000419644093076 0.0
1.14500323447 -7.70244139872e-05 0.0
1.14457363576 -0.00155810863037 0.0
1.13174538302 -0.0107728879874 0.0
1.14497624944 -0.00014142711941 0.0
0.851459366025 0.00258176255293 0.0
0.943953807352 -0.04315694333 0.0
0.844493967448 -0.000486674373148 0.0
0.844826246844 0.00165486141202 0.0
0.834616791004 0.00125065386604 0.0
0.838546033 -0.00242070890734 0.0
0.859228283398 -0.0102838407244 0.0
0.839631023422 0.0011103399764 0.0
0.841477250568 0.00185681465509 0.0
0.846195132978 0.000474041887831 0.0
0.841785831013 0.000672240808109 0.0
0.845676616534 -0.000779926472113 0.0
0.844438170269 0.000172876491104 0.0
0.844731001442 0.00178866709754 0.0
0.840849791898 0.00165641081282 0.0
0.841844056376 0.000782651451482 0.0
0.843731996267 -0.000606185436577 0.0
0.84512871771 0.00132140458453 0.0
0.838831347829 0.000441329483863 0.0
0.840439639158 8.92555356208e-07 0.0
0.842800440471 -0.000692284213218 0.0
0.841671900239 0.000560157366799 0.0
0.843529294054 -0.000198138317254 0.0
0.841689356959 -6.54449423719e-05 0.0
0.843440236567 -0.00196651974696 0.0
0.84366510526 0.00249310277327 0.0
1.14493824602 4.28831614292e-05 0.0
1.14226745301 -4.4906809003e-05 0.0
1.11442097552 -0.070837935944 0.0
1.14423607253 -9.82370317008e-05 0.0
1.14155437347 -0.000708612081138 0.0
1.14429850609 -0.000406819429071 0.0
1.14123026096 0.000238526727824 0.0
1.14195706146 0.00177310086949 0.0
1.14086605211 -0.000163515492098 0.0
1.14064246859 -0.000531952421285 0.0
1.14271600285 -0.00236595658482 0.0
1.14199837366 -0.000154728686029 0.0
1.14047404961 0.000271408844914 0.0
1.14144355875 -0.00013420607138 0.0
1.14109838096 0.000476518111042 0.0
1.16113979832 -0.0384178428163 0.0
1.14192190856 -0.00039803118419 0.0
0.810151831855 0.00372626793853 0.0
0.811491748031 -0.00030156683409 0.0
1.14603577834 -4.360449072e-05 0.0
1.07506796328 -0.0207161910537 0.0
1.12568381559 -0.153583581678 0.0
0.844285437672 0.0019380037739 0.0
0.826728473512 0.00779598673607 0.0
0.990406613089 -0.0683332563724 0.0
1.14559116331 -0.00012301050928 0.0
1.14278891382 -0.00317438525779 0.0
1.14499270807 -0.000109706139307 0.0
1.14610081501 -0.000102793433059 0.0
1.14474393094 -1.25277312205e-05 0.0
1.14512116667 0.000304710956346 0.0
1.14577351599 -0.000151191050988 0.0
1.00478951784 -0.00895704572319 0.0
1.14466776007 -9.76675394192e-05 0.0
1.14461313153 2.97489969127e-05 0.0
1.14513361465 7.81280747747e-05 0.0
1.14476295731 5.42908887696e-05 0.0
1.14480957781 4.24461024054e-05 0.0
1.14493986448 0.000103203648306 0.0
1.14447656438 0.000161275235153 0.0
1.14634249116 -0.000287904395009 0.0
1.12562918287 -0.0363408995292 0.0
0.810153105182 0.00280108248137 0.0
0.815035129519 -0.00370527483361 0.0
1.14597234166 -0.000108803918748 0.0
1.14635221051 -0.00213203347835 0.0
1.14637794687 -2.65389306865e-05 0.0
1.05574021857 -0.0192840562663 0.0
1.1459022871 -0.000268330694977 0.0
1.14336685239 -0.0159341342247 0.0
1.14534799197 -0.000302646420741 0.0
1.1470935544 0.000910097267346 0.0
1.1454879473 -1.01878521514e-05 0.0
1.1449609753 0.00041611463053 0.0
1.14512997944 -0.000130562448774 0.0
1.14526657201 -7.97826227941e-05 0.0
1.1452689459 0.00015864703104 0.0
0.800460892482 0.00209192693794 0.0
0.777308059998 0.00194036999386 0.0
1.14489708281 -0.000273304381378 0.0
1.14464709618 -5.48573372502e-05 0.0
0.788856479701 0.00455707478027 0.0
1.11867415203 -0.121053920505 0.0
1.14612021044 -8.7799920987e-05 0.0
1.02228063726 -0.0152180534565 0.0
1.14604432509 0.000266991246604 0.0
1.14473559578 -0.00013681316654 0.0
1.14559376042 -0.000506457611456 0.0
1.14507346313 -0.000775363417035 0.0
1.14512143606 0.000217788922722 0.0
1.14531940956 9.9958373618e-06 0.0
1.14495322017 3.52429286282e-05 0.0
1.14475387549 -2.51045213238e-05 0.0
1.14520829708 -0.000253767556744 0.0
1.11967869793 -0.000302200024054 0.0
1.17643654148 -0.0664250816688 0.0
1.14604394549 0.00109824245421 0.0
1.14508687994 -0.000107062324863 0.0
1.14715774383 -0.000725120419067 0.0
1.14563667167 -0.000412181234525 0.0
1.11788428464 -0.000109089060453 0.0
1.11779289698 -0.000721765358385 0.0
1.11831023715 3.10060226941e-05 0.0
1.11817042619 0.000222868712832 0.0
1.13332816682 -0.0113271036935 0.0
1.11652697845 0.000770718470092 0.0
1.1231153007 -0.00305988428536 0.0
1.11688740366 0.000376474391388 0.0
1.11833629463 0.000562624365124 0.0
1.1184157407 0.0017668980052 0.0
1.11834080575 -0.000127489177229 0.0
1.12090701096 0.00160074898504 0.0
1.11930067103 -0.000492971829303 0.0
1.06613951706 -0.0463087811446 0.0
1.14691414904 -7.18936643509e-05 0.0
1.11931311251 -0.000611813278009 0.0
1.12049069079 -0.00221547827191 0.0
1.13810003907 0.000326964873579 0.0
1.06138290526 -0.0729907581134 0.0
1.02088643026 -0.0534064068583 0.0
1.11828007193 3.83475114588e-05 0.0
1.00484504482 -0.0170787465175 0.0
1.14596577284 -3.49288246966e-05 0.0
1.14679872605 -2.97076561259e-05 0.0
1.03630715398 -0.0383975943527 0.0
1.14482598054 0.000395571824432 0.0
1.14569781485 0.000332509019799 0.0
1.11997633188 0.00194490641214 0.0
1.12064968863 0.00048019343127 0.0
1.14619430471 -0.000143781435834 0.0
1.14678214587 -0.00745814123593 0.0
1.11282610564 -0.0451998501785 0.0
1.1466356595 -0.000314653219492 0.0
1.10181458724 -0.00215334468048 0.0
1.10307766064 -0.000379940270715 0.0
1.10108426481 -0.00143391890723 0.0
1.10139217638 0.00341123911424 0.0
1.1014045188 -0.00175964182472 0.0
1.1018555605 -1.35436341578e-06 0.0
1.10141684159 -0.0010343179276 0.0
1.10224599847 0.000553769907053 0.0
1.10240160068 0.000866730085345 0.0
1.10355262186 -0.00339713059428 0.0
1.1029046444 0.000685232426061 0.0
1.14144876027 -0.0337330077754 0.0
1.09494036441 -0.00164129106208 0.0
1.14238918597 -0.00066525976878 0.0
1.14453733316 0.000445481450179 0.0
1.12714080086 -0.0866209742812 0.0
1.13059665919 0.000159676835458 0.0
1.12054708553 -0.0108616243867 0.0
1.14592787608 -5.05142248098e-05 0.0
1.09570958249 0.00126273672942 0.0
1.12941948736 -0.108065685072 0.0
1.09691033733 -0.0146829141985 0.0
1.1458543352 -8.13451003772e-05 0.0
1.14373269634 -9.25132141068e-06 0.0
1.14364676823 3.77812507458e-05 0.0
1.14363995341 3.2142019579e-05 0.0
1.14368572963 -5.92730486707e-05 0.0
1.14357410474 8.50077113104e-05 0.0
1.14375568827 -5.48007108406e-05 0.0
1.14484250579 0.000236318050089 0.0
1.14489580242 -0.000582921847269 0.0
1.14468883675 -2.7106174086e-05 0.0
1.13660932342 -0.00520992513983 0.0
1.14565845538 -0.000138834621223 0.0
0.681476231464 -0.00122295708917 0.0
0.720912142057 -0.0190796741427 0.0
0.666893443523 0.00578392544166 0.0
0.670105565092 -0.00282471920351 0.0
0.614259704864 -0.00612042052927 0.0
0.61141552806 0.00177999058381 0.0
0.677240009927 -0.00324744243354 0.0
0.681463672282 -0.00164856411687 0.0
0.685625097714 0.000212236068762 0.0
0.6886561075 -0.00300263686012 0.0
0.690355795639 -0.00250270722657 0.0