# vtk DataFile Version 2.0
2D Simulation Python
ASCII
DATASET UNSTRUCTURED_GRID
FIELD FieldData 1
NODES 1 2 int
11134 7299

POINTS 11134 double
0.0 1.0 0.0
1.725 1.0 0.0
8.275 1.0 0.0
10.0 1.0 0.0
10.0 0.0 0.0
0.0 0.0 0.0
0.05948275862057954 1.0 0.0
0.1189655172411507 1.0 0.0
0.1784482758617532 1.0 0.0
0.2379310344823185 1.0 0.0
0.2974137931028384 1.0 0.0
0.3568965517233564 1.0 0.0
0.4163793103438745 1.0 0.0
0.475862068964385 1.0 0.0
0.535344827584889 1.0 0.0
0.5948275862053855 1.0 0.0
0.654310344825882 1.0 0.0
0.7137931034463786 1.0 0.0
0.7732758620668752 1.0 0.0
0.8327586206874149 1.0 0.0
0.8922413793081027 1.0 0.0
0.9517241379289384 1.0 0.0
1.011206896549752 1.0 0.0
1.070689655170612 1.0 0.0
1.130172413791474 1.0 0.0
1.189655172412335 1.0 0.0
1.249137931033183 1.0 0.0
1.308620689654105 1.0 0.0
1.368103448274985 1.0 0.0
1.427586206895818 1.0 0.0
1.487068965516628 1.0 0.0
1.546551724137449 1.0 0.0
1.606034482758285 1.0 0.0
1.665517241379139 1.0 0.0
1.784545454545345 1.0 0.0
1.844090909090676 1.0 0.0
1.903636363635991 1.0 0.0
1.963181818181336 1.0 0.0
2.022727272726716 1.0 0.0
2.082272727272112 1.0 0.0
2.141818181817408 1.0 0.0
2.201363636362702 1.0 0.0
2.260909090908037 1.0 0.0
2.320454545453433 1.0 0.0
2.379999999998759 1.0 0.0
2.439545454544053 1.0 0.0
2.499090909089358 1.0 0.0
2.558636363634754 1.0 0.0
2.618181818180109 1.0 0.0
2.677727272725404 1.0 0.0
2.737272727270631 1.0 0.0
2.796818181815906 1.0 0.0
2.856363636361191 1.0 0.0
2.915909090906408 1.0 0.0
2.975454545451703 1.0 0.0
3.034999999997049 1.0 0.0
3.094545454542377 1.0 0.0
3.154090909087591 1.0 0.0
3.21363636363288 1.0 0.0
3.273181818178196 1.0 0.0
3.332727272723555 1.0 0.0
3.392272727268849 1.0 0.0
3.451818181814208 1.0 0.0
3.511363636359524 1.0 0.0
3.570909090904812 1.0 0.0
3.630454545450026 1.0 0.0
3.689999999995355 1.0 0.0
3.749545454540702 1.0 0.0
3.809090909085996 1.0 0.0
3.868636363631291 1.0 0.0
3.928181818176585 1.0 0.0
3.987727272721861 1.0 0.0
4.047272727267021 1.0 0.0
4.106818181812208 1.0 0.0
4.166363636357625 1.0 0.0
4.225909090903122 1.0 0.0
4.285454545448432 1.0 0.0
4.34499999999356 1.0 0.0
4.404545454538917 1.0 0.0
4.464090909084414 1.0 0.0
4.523636363629791 1.0 0.0
4.583181818174936 1.0 0.0
4.642727272720208 1.0 0.0
4.702272727265705 1.0 0.0
4.761818181811142 1.0 0.0
4.821363636356348 1.0 0.0
4.880909090901557 1.0 0.0
4.940454545446997 1.0 0.0
4.999999999992493 1.0 0.0
5.059545454538018 1.0 0.0
5.119090909083717 1.0 0.0
5.17863636362933 1.0 0.0
5.238181818174827 1.0 0.0
5.297727272720321 1.0 0.0
5.357272727265989 1.0 0.0
5.416818181811662 1.0 0.0
5.476363636357158 1.0 0.0
5.535909090902654 1.0 0.0
5.595454545448262 1.0 0.0
5.65499999999396 1.0 0.0
5.714545454539491 1.0 0.0
5.774090909085032 1.0 0.0
5.83363636363093 1.0 0.0
5.893181818176673 1.0 0.0
5.952727272722171 1.0 0.0
6.012272727267668 1.0 0.0
6.071818181813491 1.0 0.0
6.131363636359353 1.0 0.0
6.190909090904849 1.0 0.0
6.250454545450346 1.0 0.0
6.309999999996052 1.0 0.0
6.369545454541951 1.0 0.0
6.429090909087529 1.0 0.0
6.488636363633026 1.0 0.0
6.548181818178611 1.0 0.0
6.60772727272451 1.0 0.0
6.667272727270209 1.0 0.0
6.726818181815705 1.0 0.0
6.786363636361202 1.0 0.0
6.845909090907071 1.0 0.0
6.905454545452889 1.0 0.0
6.964999999998385 1.0 0.0
7.024545454543881 1.0 0.0
7.084090909089378 1.0 0.0
7.143636363634876 1.0 0.0
7.20318181818037 1.0 0.0
7.262727272725868 1.0 0.0
7.322272727271365 1.0 0.0
7.381818181816859 1.0 0.0
7.441363636362357 1.0 0.0
7.500909090907854 1.0 0.0
7.560454545453348 1.0 0.0
7.619999999998846 1.0 0.0
7.679545454544343 1.0 0.0
7.739090909089839 1.0 0.0
7.798636363635335 1.0 0.0
7.858181818180832 1.0 0.0
7.917727272726328 1.0 0.0
7.977272727271824 1.0 0.0
8.036818181817441 1.0 0.0
8.09636363636334 1.0 0.0
8.155909090909008 1.0 0.0
8.215454545454504 1.0 0.0
8.334482758620055 1.0 0.0
8.393965517240051 1.0 0.0
8.453448275859904 1.0 0.0
8.51293103448045 1.0 0.0
8.572413793100301 1.0 0.0
8.631896551720153 1.0 0.0
8.6913793103407 1.0 0.0
8.750862068961245 1.0 0.0
8.810344827581792 1.0 0.0
8.869827586202339 1.0 0.0
8.929310344822884 1.0 0.0
8.988793103443431 1.0 0.0
9.048275862063978 1.0 0.0
9.107758620684523 1.0 0.0
9.16724137930507 1.0 0.0
9.226724137925617 1.0 0.0
9.286206896546162 1.0 0.0
9.345689655167401 1.0 0.0
9.405172413788595 1.0 0.0
9.46465517240963 1.0 0.0
9.524137931030667 1.0 0.0
9.583620689651704 1.0 0.0
9.643103448272907 1.0 0.0
9.702586206894148 1.0 0.0
9.762068965515388 1.0 0.0
9.821551724136627 1.0 0.0
9.881034482757867 1.0 0.0
9.940517241378963 1.0 0.0
10.0 0.9411764705879904 0.0
10.0 0.882352941175982 0.0
10.0 0.8235294117645425 0.0
10.0 0.764705882353186 0.0
10.0 0.7058823529418295 0.0
10.0 0.6470588235304731 0.0
10.0 0.5882352941191167 0.0
10.0 0.5294117647077601 0.0
10.0 0.4705882352960771 0.0
10.0 0.4117647058840672 0.0
10.0 0.3529411764720576 0.0
10.0 0.2941176470600479 0.0
10.0 0.2352941176480381 0.0
10.0 0.1764705882360285 0.0
10.0 0.1176470588240187 0.0
10.0 0.05882352941200908 0.0
9.940119760479043 0.0 0.0
9.880239520958083 0.0 0.0
9.820359281437126 0.0 0.0
9.760479041916167 0.0 0.0
9.70059880239521 0.0 0.0
9.640718562874252 0.0 0.0
9.580838323353293 0.0 0.0
9.520958083832335 0.0 0.0
9.461077844311376 0.0 0.0
9.401197604790418 0.0 0.0
9.34131736526946 0.0 0.0
9.281437125748502 0.0 0.0
9.221556886227543 0.0 0.0
9.161676646706585 0.0 0.0
9.101796407185628 0.0 0.0
9.041916167664668 0.0 0.0
8.982035928143711 0.0 0.0
8.922155688622752 0.0 0.0
8.862275449101794 0.0 0.0
8.802395209580837 0.0 0.0
8.742514970059878 0.0 0.0
8.68263473053892 0.0 0.0
8.622754491017961 0.0 0.0
8.562874251497004 0.0 0.0
8.502994011976044 0.0 0.0
8.443113772455087 0.0 0.0
8.38323353293413 0.0 0.0
8.32335329341317 0.0 0.0
8.263473053892213 0.0 0.0
8.203592814371254 0.0 0.0
8.143712574850296 0.0 0.0
8.083832335329337 0.0 0.0
8.02395209580838 0.0 0.0
7.964071856287422 0.0 0.0
7.904191616766464 0.0 0.0
7.844311377245505 0.0 0.0
7.784431137724548 0.0 0.0
7.72455089820359 0.0 0.0
7.664670658682631 0.0 0.0
7.604790419161674 0.0 0.0
7.544910179640715 0.0 0.0
7.485029940119757 0.0 0.0
7.425149700598799 0.0 0.0
7.36526946107784 0.0 0.0
7.305389221556883 0.0 0.0
7.245508982035925 0.0 0.0
7.185628742514966 0.0 0.0
7.125748502994009 0.0 0.0
7.065868263473051 0.0 0.0
7.005988023952092 0.0 0.0
6.946107784431135 0.0 0.0
6.886227544910177 0.0 0.0
6.826347305389219 0.0 0.0
6.766467065868261 0.0 0.0
6.706586826347303 0.0 0.0
6.646706586826344 0.0 0.0
6.586826347305387 0.0 0.0
6.526946107784428 0.0 0.0
6.46706586826347 0.0 0.0
6.407185628742512 0.0 0.0
6.347305389221554 0.0 0.0
6.287425149700596 0.0 0.0
6.227544910179638 0.0 0.0
6.16766467065868 0.0 0.0
6.107784431137722 0.0 0.0
6.047904191616764 0.0 0.0
5.988023952095805 0.0 0.0
5.928143712574848 0.0 0.0
5.868263473053889 0.0 0.0
5.808383233532932 0.0 0.0
5.748502994011973 0.0 0.0
5.688622754491016 0.0 0.0
5.628742514970057 0.0 0.0
5.568862275449099 0.0 0.0
5.508982035928141 0.0 0.0
5.449101796407183 0.0 0.0
5.389221556886225 0.0 0.0
5.329341317365267 0.0 0.0
5.269461077844309 0.0 0.0
5.209580838323351 0.0 0.0
5.149700598802393 0.0 0.0
5.089820359281434 0.0 0.0
5.029940119760477 0.0 0.0
4.970059880239518 0.0 0.0
4.91017964071856 0.0 0.0
4.850299401197602 0.0 0.0
4.790419161676644 0.0 0.0
4.730538922155686 0.0 0.0
4.670658682634729 0.0 0.0
4.610778443113769 0.0 0.0
4.550898203592812 0.0 0.0
4.491017964071854 0.0 0.0
4.431137724550896 0.0 0.0
4.371257485029938 0.0 0.0
4.31137724550898 0.0 0.0
4.251497005988022 0.0 0.0
4.191616766467064 0.0 0.0
4.131736526946106 0.0 0.0
4.071856287425147 0.0 0.0
4.01197604790419 0.0 0.0
3.952095808383231 0.0 0.0
3.892215568862274 0.0 0.0
3.832335329341316 0.0 0.0
3.772455089820358 0.0 0.0
3.712574850299399 0.0 0.0
3.652694610778441 0.0 0.0
3.592814371257483 0.0 0.0
3.532934131736526 0.0 0.0
3.473053892215567 0.0 0.0
3.41317365269461 0.0 0.0
3.353293413173652 0.0 0.0
3.293413173652693 0.0 0.0
3.233532934131736 0.0 0.0
3.173652694610777 0.0 0.0
3.113772455089819 0.0 0.0
3.053892215568861 0.0 0.0
2.994011976047903 0.0 0.0
2.934131736526945 0.0 0.0
2.874251497005988 0.0 0.0
2.814371257485028 0.0 0.0
2.754491017964071 0.0 0.0
2.694610778443113 0.0 0.0
2.634730538922155 0.0 0.0
2.574850299401197 0.0 0.0
2.514970059880238 0.0 0.0
2.455089820359281 0.0 0.0
2.395209580838323 0.0 0.0
2.335329341317365 0.0 0.0
2.275449101796406 0.0 0.0
2.215568862275448 0.0 0.0
2.15568862275449 0.0 0.0
2.095808383233532 0.0 0.0
2.035928143712574 0.0 0.0
1.976047904191615 0.0 0.0
1.916167664670658 0.0 0.0
1.8562874251497 0.0 0.0
1.796407185628741 0.0 0.0
1.736526946107784 0.0 0.0
1.676646706586826 0.0 0.0
1.616766467065867 0.0 0.0
1.55688622754491 0.0 0.0
1.49700598802395 0.0 0.0
1.437125748502995 0.0 0.0
1.377245508982035 0.0 0.0
1.317365269461078 0.0 0.0
1.257485029940119 0.0 0.0
1.19760479041916 0.0 0.0
1.137724550898204 0.0 0.0
1.077844311377245 0.0 0.0
1.017964071856287 0.0 0.0
0.958083832335328 0.0 0.0
0.8982035928143723 0.0 0.0
0.8383233532934131 0.0 0.0
0.7784431137724539 0.0 0.0
0.7185628742514965 0.0 0.0
0.658682634730539 0.0 0.0
0.5988023952095816 0.0 0.0
0.5389221556886223 0.0 0.0
0.4790419161676631 0.0 0.0
0.4191616766467074 0.0 0.0
0.3592814371257482 0.0 0.0
0.2994011976047908 0.0 0.0
0.2395209580838316 0.0 0.0
0.1796407185628741 0.0 0.0
0.1197604790419167 0.0 0.0
0.05988023952095922 0.0 0.0
0.0 0.0588235294116454 0.0
0.0 0.1176470588233168 0.0
0.0 0.1764705882349203 0.0
0.0 0.2352941176465135 0.0
0.0 0.2941176470581066 0.0
0.0 0.3529411764696997 0.0
0.0 0.4117647058812929 0.0
0.0 0.4705882352928861 0.0
0.0 0.5294117647046425 0.0
0.0 0.5882352941165623 0.0
0.0 0.6470588235284821 0.0
0.0 0.7058823529404019 0.0
0.0 0.7647058823523216 0.0
0.0 0.8235294117642414 0.0
0.0 0.8823529411761613 0.0
0.0 0.941176470588081 0.0
9.496671432578891 0.5021202775764965 0.0
0.503328567417594 0.502120277573701 0.0
8.960949321310713 0.5028360638807292 0.0
1.039050678683441 0.5028360638815292 0.0
8.421726050444478 0.5013914029598455 0.0
1.578273949553219 0.5013914029599852 0.0
2.110012838156869 0.501717680037117 0.0
[...]
POINT_DATA 11134
VECTORS vector double
1.0 0.0 0.0
0.0 0.0 0.0
0.0 0.0 0.0
0.0 0.0 0.0
0.0 0.0 0.0
1.0 0.0 0.0
0.0 0.0 0.0
0.0 0.0 0.0
0.0 0.0 0.0
0.0 0.0 0.0
0.0 0.0 0.0
0.0 0.0 0.0
0.0 0.0 0.0
0.0 0.0 0.0
0.0 0.0 0.0
0.0 0.0 0.0
0.0 0.0 0.0
0.0 0.0 0.0
0.0 0.0 0.0
0.0 0.0 0.0
0.0 0.0 0.0
0.0 0.0 0.0
0.0 0.0 0.0
0.0 0.0 0.0
0.0 0.0 0.0
0.0 0.0 0.0
0.0 0.0 0.0
0.0 0.0 0.0
0.0 0.0 0.0
0.0 0.0 0.0
0.0 0.0 0.0
0.0 0.0 0.0
0.0 0.0 0.0
0.0 0.0 0.0
0.0 0.0 0.0
0.0 0.0 0.0
0.0 0.0 0.0
0.0 0.0 0.0
0.0 0.0 0.0
0.0 0.0 0.0
0.0 0.0 0.0
0.0 0.0 0.0
0.0 0.0 0.0
0.0 0.0 0.0
0.0 0.0 0.0
0.0 0.0 0.0
0.0 0.0 0.0
0.0 0.0 0.0
0.0 0.0 0.0
0.0 0.0 0.0
0.0 0.0 0.0
0.0 0.0 0.0
0.0 0.0 0.0
0.0 0.0 0.0
0.0 0.0 0.0
0.0 0.0 0.0
0.0 0.0 0.0
0.0 0.0 0.0
0.0 0.0 0.0
0.0 0.0 0.0
0.0 0.0 0.0
0.0 0.0 0.0
0.0 0.0 0.0
0.0 0.0 0.0
0.0 0.0 0.0
0.0 0.0 0.0
0.0 0.0 0.0
0.0 0.0 0.0
0.0 0.0 0.0
0.0 0.0 0.0
0.0 0.0 0.0
0.0 0.0 0.0
0.0 0.0 0.0
0.0 0.0 0.0
0.0 0.0 0.0
0.0 0.0 0.0
0.0 0.0 0.0
0.0 0.0 0.0
0.0 0.0 0.0
0.0 0.0 0.0
0.0 0.0 0.0
0.0 0.0 0.0
0.0 0.0 0.0
0.0 0.0 0.0
0.0 0.0 0.0
0.0 0.0 0.0
0.0 0.0 0.0
0.0 0.0 0.0
0.0 0.0 0.0
0.0 0.0 0.0
0.0 0.0 0.0
0.0 0.0 0.0
0.0 0.0 0.0
0.0 0.0 0.0
0.0 0.0 0.0
0.0 0.0 0.0
0.0 0.0 0.0
0.0 0.0 0.0
0.0 0.0 0.0
0.0 0.0 0.0
0.0 0.0 0.0
0.0 0.0 0.0
0.0 0.0 0.0
0.0 0.0 0.0
0.0 0.0 0.0
0.0 0.0 0.0
0.0 0.0 0.0
0.0 0.0 0.0
0.0 0.0 0.0
0.0 0.0 0.0
0.0 0.0 0.0
0.0 0.0 0.0
0.0 0.0 0.0
0.0 0.0 0.0
0.0 0.0 0.0
0.0 0.0 0.0
0.0 0.0 0.0
0.0 0.0 0.0
0.0 0.0 0.0
0.0 0.0 0.0
0.0 0.0 0.0
0.0 0.0 0.0
0.0 0.0 0.0
0.0 0.0 0.0
0.0 0.0 0.0
0.0 0.0 0.0
0.0 0.0 0.0
0.0 0.0 0.0
0.0 0.0 0.0
0.0 0.0 0.0
0.0 0.0 0.0
0.0 0.0 0.0
0.0 0.0 0.0
0.0 0.0 0.0
0.0 0.0 0.0
0.0 0.0 0.0
0.0 0.0 0.0
0.0 0.0 0.0
0.0 0.0 0.0
0.0 0.0 0.0
0.0 0.0 0.0
0.0 0.0 0.0
0.0 0.0 0.0
0.0 0.0 0.0
0.0 0.0 0.0
0.0 0.0 0.0
0.0 0.0 0.0
0.0 0.0 0.0
0.0 0.0 0.0
0.0 0.0 0.0
0.0 0.0 0.0
0.0 0.0 0.0
0.0 0.0 0.0
0.0 0.0 0.0
0.0 0.0 0.0
0.0 0.0 0.0
0.0 0.0 0.0
0.0 0.0 0.0
0.0 0.0 0.0
0.0 0.0 0.0
0.0 0.0 0.0
0.0 0.0 0.0
0.0 0.0 0.0
0.0 0.0 0.0
0.0 0.0 0.0
0.0 0.0 0.0
0.0 0.0 0.0
0.0 0.0 0.0
0.0 0.0 0.0
0.0 0.0 0.0
0.0 0.0 0.0
0.358570198868 0.059450088302 0.0
0.655251925861 0.0444180969268 0.0
0.885992678321 0.0319837254767 0.0
1.09422360445 0.018937180656 0.0
1.26381920434 0.0148544058464 0.0
1.34479688477 0.0159820925785 0.0
1.40325180077 0.00656487007525 0.0
1.44081424234 0.00210450579424 0.0
1.4400056628 -0.00207218905481 0.0
1.41017102379 -0.00792820590155 0.0
1.34979562215 -0.0124902198241 0.0
1.24897134808 -0.0233575254173 0.0
1.11315287743 -0.0236364576229 0.0
0.921504740611 -0.0307537090358 0.0
0.684730726694 -0.0258746296129 0.0
0.356065735411 -0.0568827182803 0.0
0.0 0.0 0.0
0.0 0.0 0.0
0.0 0.0 0.0
0.0 0.0 0.0
0.0 0.0 0.0
0.0 0.0 0.0
0.0 0.0 0.0
0.0 0.0 0.0
0.0 0.0 0.0
0.0 0.0 0.0
0.0 0.0 0.0
0.0 0.0 0.0
0.0 0.0 0.0
0.0 0.0 0.0
0.0 0.0 0.0
0.0 0.0 0.0
0.0 0.0 0.0
0.0 0.0 0.0
0.0 0.0 0.0
0.0 0.0 0.0
0.0 0.0 0.0
0.0 0.0 0.0
0.0 0.0 0.0
0.0 0.0 0.0
0.0 0.0 0.0
0.0 0.0 0.0
0.0 0.0 0.0
0.0 0.0 0.0
0.0 0.0 0.0
0.0 0.0 0.0
0.0 0.0 0.0
0.0 0.0 0.0
0.0 0.0 0.0
0.0 0.0 0.0
0.0 0.0 0.0
0.0 0.0 0.0
0.0 0.0 0.0
0.0 0.0 0.0
0.0 0.0 0.0
0.0 0.0 0.0
0.0 0.0 0.0
0.0 0.0 0.0
0.0 0.0 0.0
0.0 0.0 0.0
0.0 0.0 0.0
0.0 0.0 0.0
0.0 0.0 0.0
0.0 0.0 0.0
0.0 0.0 0.0
0.0 0.0 0.0
0.0 0.0 0.0
0.0 0.0 0.0
0.0 0.0 0.0
0.0 0.0 0.0
0.0 0.0 0.0
0.0 0.0 0.0
0.0 0.0 0.0
0.0 0.0 0.0
0.0 0.0 0.0
0.0 0.0 0.0
0.0 0.0 0.0
0.0 0.0 0.0
0.0 0.0 0.0
0.0 0.0 0.0
0.0 0.0 0.0
0.0 0.0 0.0
0.0 0.0 0.0
0.0 0.0 0.0
0.0 0.0 0.0
0.0 0.0 0.0
0.0 0.0 0.0
0.0 0.0 0.0
0.0 0.0 0.0
0.0 0.0 0.0
0.0 0.0 0.0
0.0 0.0 0.0
0.0 0.0 0.0
0.0 0.0 0.0
0.0 0.0 0.0
0.0 0.0 0.0
0.0 0.0 0.0
0.0 0.0 0.0
0.0 0.0 0.0
0.0 0.0 0.0
0.0 0.0 0.0
0.0 0.0 0.0
0.0 0.0 0.0
0.0 0.0 0.0
0.0 0.0 0.0
0.0 0.0 0.0
0.0 0.0 0.0
0.0 0.0 0.0
0.0 0.0 0.0
0.0 0.0 0.0
0.0 0.0 0.0
0.0 0.0 0.0
0.0 0.0 0.0
0.0 0.0 0.0
0.0 0.0 0.0
0.0 0.0 0.0
0.0 0.0 0.0
0.0 0.0 0.0
0.0 0.0 0.0
0.0 0.0 0.0
0.0 0.0 0.0
0.0 0.0 0.0
0.0 0.0 0.0
0.0 0.0 0.0
0.0 0.0 0.0
0.0 0.0 0.0
0.0 0.0 0.0
0.0 0.0 0.0
0.0 0.0 0.0
0.0 0.0 0.0
0.0 0.0 0.0
0.0 0.0 0.0
0.0 0.0 0.0
0.0 0.0 0.0
0.0 0.0 0.0
0.0 0.0 0.0
0.0 0.0 0.0
0.0 0.0 0.0
0.0 0.0 0.0
0.0 0.0 0.0
0.0 0.0 0.0
0.0 0.0 0.0
0.0 0.0 0.0
0.0 0.0 0.0
0.0 0.0 0.0
0.0 0.0 0.0
0.0 0.0 0.0
0.0 0.0 0.0
0.0 0.0 0.0
0.0 0.0 0.0
0.0 0.0 0.0
0.0 0.0 0.0
0.0 0.0 0.0
0.0 0.0 0.0
0.0 0.0 0.0
0.0 0.0 0.0
0.0 0.0 0.0
0.0 0.0 0.0
0.0 0.0 0.0
0.0 0.0 0.0
0.0 0.0 0.0
0.0 0.0 0.0
0.0 0.0 0.0
0.0 0.0 0.0
0.0 0.0 0.0
0.0 0.0 0.0
0.0 0.0 0.0
0.0 0.0 0.0
0.0 0.0 0.0
0.0 0.0 0.0
0.0 0.0 0.0
0.0 0.0 0.0
0.0 0.0 0.0
0.0 0.0 0.0
0.0 0.0 0.0
0.0 0.0 0.0
0.0 0.0 0.0
0.0 0.0 0.0
0.0 0.0 0.0
0.0 0.0 0.0
0.0 0.0 0.0
0.0 0.0 0.0
1.0 0.0 0.0
1.0 0.0 0.0
1.0 0.0 0.0
1.0 0.0 0.0
1.0 0.0 0.0
1.0 0.0 0.0
1.0 0.0 0.0
1.0 0.0 0.0
1.0 0.0 0.0
1.0 0.0 0.0
1.0 0.0 0.0
1.0 0.0 0.0
1.0 0.0 0.0
1.0 0.0 0.0
1.0 0.0 0.0
1.0 0.0 0.0
1.4439940622 0.000332884762642 0.0
1.1418844243 -0.00073283508054 0.0
1.44373514847 -0.000844404034467 0.0
1.30194439903 -0.0010701927797 0.0
1.4453933248 -0.00145941619294 0.0
1.39135725416 -0.000550402503417 0.0
1.43330712148 -0.00107448319495 0.0
1.44576680889 -0.000715835857736 0.0
1.44616720743 0.000276377057691 0.0
1.44567784826 0.000826539703095 0.0
1.446549502 0.000284261153217 0.0
1.44464488187 0.00192913776857 0.0
1.44616353934 -0.000141569337215 0.0
1.44275287586 0.00117783215883 0.0
1.44560477206 -0.000992171022962 0.0
1.44093511275 -0.000319712707253 0.0
1.44354577104 -0.000726540621009 0.0
1.4393985095 -0.000926362431085 0.0
1.30378684279 -0.00112192767599 0.0
1.25262980162 -0.0467331179828 0.0
1.30527800271 -0.00375247450192 0.0
1.24985264587 0.0492950241244 0.0
1.30080504441 -0.00178644525422 0.0
1.29346745604 -0.0194495338993 0.0
1.30207224489 0.0010892568499 0.0
1.30212966758 0.000586221560165 0.0
1.30056199409 -0.00974338580635 0.0
1.30102958662 -0.000137452427333 0.0
1.30322215936 -0.00163296157688 0.0
1.30401911669 -0.00132146894865 0.0
1.29728092535 0.000383333863859 0.0
1.30009531947 0.00239618637681 0.0
1.30104526794 7.43040640914e-05 0.0
1.30137150728 0.00212765354539 0.0
1.29964632238 -1.08671638984e-05 0.0
1.30213679663 0.00146804549035 0.0
1.29253970757 -0.00137579561505 0.0
1.29615201016 0.00157418452551 0.0
1.30054676426 -0.000136953340237 0.0
1.2994044743 0.00188707271232 0.0
1.29921637239 -0.000283777073098 0.0
1.30070017242 0.00228180655991 0.0
1.30023562844 0.00365864713999 0.0
1.29725711973 -0.0019883420784 0.0
1.31070301507 0.000354835314466 0.0
1.30923354682 0.00681061690313 0.0
1.28880432975 0.0187640144072 0.0
1.29681404163 0.00158036315562 0.0
1.28846729317 -0.0017033676616 0.0
1.28868599781 -0.00193982848992 0.0
1.24956440119 -0.00313829453682 0.0
1.25075473158 0.0021062957569 0.0
1.11343111298 -0.0880942127826 0.0
1.24110877702 0.00220053217096 0.0
1.270664026 -0.000303062945074 0.0
1.10537737162 0.0778342557731 0.0
1.14830921882 -0.000122742757177 0.0
1.20095878516 -0.0323144247001 0.0
1.12396414774 -0.0018942320556 0.0
1.14596387244 -0.0124439892273 0.0
1.1420168367 -0.00507207437358 0.0
1.14425154083 -0.00453090163119 0.0
1.14854356727 0.00525475228014 0.0
1.13223244317 0.0033986848388 0.0
1.15371302398 -0.00526024652382 0.0
1.15219347206 -0.00183832519228 0.0
1.14649275633 0.00185938761061 0.0
1.14961953007 -0.00278533648598 0.0
1.14756279106 0.00169650673625 0.0
1.14791489236 -0.00194141735244 0.0
1.14894138851 0.00142017083804 0.0
1.14682448965 -0.00267857548151 0.0
1.14953369144 0.000909020338614 0.0
1.13652205471 -0.00480882665346 0.0
1.14602361327 -0.00396223348686 0.0
1.14630824853 0.00600118753498 0.0
1.14692133177 -0.00397875019715 0.0
1.14327741679 0.00545880466257 0.0
1.13811268297 0.00199519969571 0.0
1.13866978048 -0.00138154744287 0.0
1.15617367065 0.00241326429667 0.0
1.14807858169 0.0013074116283 0.0
1.16586280315 0.000543504930551 0.0
1.20898296674 0.0314838175338 0.0
1.15730951978 -0.00200153681949 0.0
1.17624789577 0.0127702637782 0.0
1.14798252105 0.00280918220543 0.0
1.21559597416 -0.0796855255173 0.0
1.129613309 0.00231091734605 0.0
1.21200369791 0.0815389361829 0.0
1.07595173377 0.00348533826533 0.0
1.13595611485 -0.00140771688957 0.0
1.03611694163 -0.00502235875575 0.0
1.44272114014 0.000170493189942 0.0
1.44203994327 -0.00137716089894 0.0
1.44285823987 -0.000194286682174 0.0
1.4442994056 -0.000360354619613 0.0
1.44570938702 -0.000820371289657 0.0
1.44045319791 -0.000168373203776 0.0
1.44670146643 0.000351769592223 0.0
1.44373182142 0.001476648047 0.0
1.44560748986 -0.000475712053256 0.0
1.36639488261 -0.000322924361217 0.0
1.44631599234 -0.00155149307482 0.0
1.41100253346 5.99727930829e-05 0.0
1.44685522412 0.000646881658873 0.0
1.44533688101 0.00177892446888 0.0
1.44482809243 5.03440721551e-05 0.0
1.44621601725 0.000132873031353 0.0
1.25296273525 0.000268283962681 0.0
1.4435400272 -0.000291422880973 0.0
0.921589311008 -0.00308571963199 0.0
0.984982675082 0.0191395436058 0.0
0.928910183392 -0.0038140570591 0.0
0.935348556025 0.00476463274163 0.0
0.929583245749 -0.004098986349 0.0
0.93250016722 0.00499252973409 0.0
0.931524273023 -0.00374930488207 0.0
0.931383064603 0.00403801740507 0.0
0.934416678051 -0.0031764905712 0.0
0.933435994084 -0.00227402181299 0.0
0.945078866305 0.00615538260758 0.0
0.968126390201 0.0110047567267 0.0
0.927803573744 0.000313572217759 0.0
0.92361059636 0.00237717176454 0.0
1.04255372301 -0.034015309824 0.0
0.913287929614 -0.000470480171343 0.0
0.934318254576 -0.00523005757575 0.0
0.903216043909 0.00178143474518 0.0
0.945809284012 -0.0122378512843 0.0
0.975311533421 -0.016826485844 0.0
0.908742223552 0.00147843640682 0.0
0.911275523053 0.000440154237765 0.0
0.916362390969 0.00012109525526 0.0
0.916562895531 -0.00136814000653 0.0
0.917237549475 -0.000628735457256 0.0
0.910246573394 0.000260184226076 0.0
0.914252708752 0.00160619166353 0.0
0.908841405172 0.000258970229213 0.0
0.912405845927 0.000896040748371 0.0
0.912060111439 9.71611064626e-05 0.0
0.913068270894 0.00146734233003 0.0
0.919085191096 -0.0033454071911 0.0
0.910612733064 -0.000841939588103 0.0
0.910974963448 -2.01173053112e-05 0.0
0.911018957906 0.00117079927893 0.0
0.912961264005 -0.00033963869966 0.0
0.912336042659 -0.000280581166177 0.0
0.912763856737 -0.00253844977225 0.0
0.914375765819 0.00225962806992 0.0
0.912170385524 -0.000446288241485 0.0
1.4395471152 6.46944254617e-05 0.0
1.19957337107 -0.00964106799326 0.0
0.905688875728 -0.000883677508835 0.0
1.44271717955 -0.00130495340692 0.0
1.43787404004 -0.00039833451719 0.0
1.44224167511 0.000897572671183 0.0
1.44343923907 0.00114970195192 0.0
1.43866000367 0.0012745288499 0.0
1.44153100575 0.000780129813961 0.0
1.42038725704 -0.00239120215131 0.0
1.44244559588 -0.00132027257459 0.0
1.43672231031 0.000155398572757 0.0
1.44123533778 0.000224747575082 0.0
1.44088091907 -0.000336958785372 0.0
1.33810351313 -0.00577503336954 0.0
1.44025887596 -0.000779771890585 0.0
0.871013692536 0.00339066353312 0.0
0.871787645843 -0.00142763613257 0.0
0.892353517596 0.00341879324635 0.0
1.01451189937 0.0273191851602 0.0
1.12942468993 -0.143383664207 0.0
0.914895688609 0.00192560555937 0.0
0.895544255626 0.0103539986125 0.0
1.06393293603 -0.0528275161286 0.0
0.889904613269 -0.00606197969481 0.0
0.910476424954 0.0106194981837 0.0
0.900357678058 -0.000442238333929 0.0
0.906667829111 0.00143041275156 0.0
0.901622013766 -0.0029237367095 0.0
0.90383998368 0.00356623172731 0.0
0.919215318907 -0.00248424816784 0.0
1.13317625044 0.14299325007 0.0
0.906807809997 -0.00381002535749 0.0
0.904111675947 0.00419931676379 0.0
0.893595933881 -0.00132915196853 0.0
0.906774056751 0.00404994084886 0.0
0.883886242813 0.00463509558748 0.0
0.906625819575 0.00416973452349 0.0
0.87908182825 -0.00464869861003 0.0
1.35064208444 -0.00215298932929 0.0
1.30494361209 0.0248008200144 0.0
0.875752508614 0.00247808307718 0.0
0.877342093016 -0.00358748143883 0.0
1.36372608191 -0.00275010479721 0.0
1.35902217522 0.00706520553263 0.0
0.880674874323 0.00173013244903 0.0
1.05081764605 0.0443220119424 0.0
1.3489777817 0.000662099747415 0.0
1.3281284433 0.0137079983754 0.0
1.36124819196 -0.000141754235853 0.0
1.36344027675 0.00156054364429 0.0
1.36212887036 0.00130940783186 0.0
1.36328431524 0.00109638697924 0.0
1.3623605302 0.000987947806173 0.0
1.36224071968 0.000590837343913 0.0
1.36293695827 0.000543675377984 0.0
0.86326867758 0.00333035455138 0.0
0.83479559328 0.00357695421292 0.0
0.840126139109 -0.00046243709578 0.0
0.869684505307 0.000532553670291 0.0
0.847866169577 0.00533096845145 0.0
1.14597321456 -0.104258575078 0.0
0.856521913196 0.00238642360949 0.0
1.14892538998 0.0999571345247 0.0
1.36640221385 4.55308633372e-05 0.0
1.36747478902 -0.0022676515208 0.0
1.38125116674 -0.000546538658552 0.0
1.38129323437 -0.00079319842502 0.0
1.3729058779 -0.000867858558469 0.0
1.37348292944 -0.000329275831907 0.0
1.37310552289 0.00155846205237 0.0
1.37468316445 0.000309971550438 0.0
1.37370506622 0.00205576907736 0.0
1.36090741086 7.67566798719e-05 0.0
1.28389049312 -0.0313489831058 0.0
1.37542646649 0.000945899178853 0.0
1.37328328485 0.00101259724267 0.0
1.3708430942 0.0034267419275 0.0
1.37161333329 -0.00101436829183 0.0
1.36276298757 -0.00100979350785 0.0
1.3623629362 -0.000182675942198 0.0
1.3598829943 0.00120249877037 0.0
1.36006444554 0.00182142680957 0.0
1.3353746672 -0.0176236387646 0.0
1.35901289318 0.000654048184019 0.0
1.34499954005 -0.0120838296086 0.0
1.36175607633 8.2980858429e-05 0.0
1.36157870499 0.00179737130379 0.0
1.36134681231 -0.00105625406572 0.0
1.36324396112 0.000524126611788 0.0
1.36520914581 0.000927734885128 0.0
1.36716436407 -0.00121708764719 0.0
1.20123359628 0.0421998758572 0.0
1.38099858909 0.00127019847405 0.0
1.36044125881 0.000988469561882 0.0
1.36714288476 -0.00122572965802 0.0
1.42496643115 0.000568660476258 0.0
1.09494734888 -0.0249896333298 0.0
1.02635266875 -0.0348792462744 0.0
1.36349178114 -0.000187953608139 0.0
1.02382628455 0.0347333150145 0.0
1.35568854505 -0.000538460836225 0.0
1.35168844064 -0.0013567360279 0.0
1.14336754336 0.0569352036482 0.0
1.38628312244 -0.000508479874691 0.0
1.38595193473 -0.000954738920069 0.0
1.36933537639 0.00177784069633 0.0
1.36605372482 -0.00167700004369 0.0
1.38773251238 -0.0015819608239 0.0
1.36451998588 0.00969794891533 0.0
1.28657811495 0.0264787102779 0.0
1.38782553054 -0.00104736515705 0.0
1.32401141731 -0.00333746954029 0.0
1.32184875369 -0.00201807403459 0.0
1.32156382925 -0.0023144740696 0.0
1.32069000356 0.00329178623694 0.0
1.32012290329 -0.0014270150249 0.0
1.3218856567 0.00259764991018 0.0
1.31869255061 -0.00161476302911 0.0
1.32254494053 0.00213315862297 0.0
1.32264279346 0.000724337037858 0.0
1.32128497227 -0.00969349262611 0.0
1.32539159344 0.00123666986187 0.0
1.29045427518 -0.0247566224784 0.0
1.3026103381 -0.00184482292227 0.0
1.44325994476 -0.00114233611954 0.0
1.44202498848 -0.000333441423925 0.0
1.18386237673 -0.0355866093251 0.0
1.39907520761 0.000329869325663 0.0
0.764887284469 0.0110774688558 0.0
0.713971732392 -0.0026257067026 0.0
1.30435102378 0.00262061388721 0.0
1.15853870381 -0.0705736726133 0.0
0.766984188115 0.0109583060838 0.0
0.689047026248 -0.000458759515434 0.0
0.66723193847 0.000593380692451 0.0
0.662530020166 0.000887374713821 0.0
0.667728794851 0.00211877377231 0.0
0.664840532807 0.00285326498286 0.0
0.663697556082 0.00103502362718 0.0
0.661296336633 0.00265375638655 0.0
0.66419116234 0.000843964521317 0.0
0.639394004278 0.00570394276503 0.0
0.631323292433 -0.000750309830271 0.0
0.732738815785 0.00460133439433 0.0
0.703530801011 0.0011377153911 0.0
0.722901711411 -0.0012259774368 0.0
0.81812533093 -0.0188359044003 0.0
0.707424969641 0.00496826795812 0.0
0.708294397798 -0.00265689542463 0.0
0.647929024544 -0.00620212507318 0.0
0.671695680547 -0.00261701142399 0.0
0.724173131844 -0.00484239470503 0.0
0.722552678307 -0.000979317132492 0.0
0.726726554401 -0.000332667411848 0.0
0.731309876673 -0.00320427324499 0.0
0.72901603831 -0.00165453308093 0.0
0.730877749549 -0.00204151540221 0.0
0.730520703259 -0.00178078649934 0.0
0.730464482246 -0.00221201375245 0.0
0.731060430081 -0.00212654813613 0.0
0.720072094441 -0.00070315740252 0.0
0.714187491874 -0.0003216424986 0.0
1.41323165157 0.000777099033962 0.0
1.07574247393 0.0320041052547 0.0
0.639495470234 -0.00179616584014 0.0
0.860261219458 -0.030804394037 0.0
0.672592865491 0.00139168952442 0.0
0.896473034925 0.0408184532158 0.0
1.36515850917 -0.00312882470951 0.0
1.37109035712 -0.00406930217664 0.0
1.36979842636 -0.000508971024801 0.0
1.30291224104 -0.0259216020158 0.0
1.23766873187 -0.00130038701629 0.0
1.23288163077 -0.0607821296625 0.0
0.656473630761 0.00291495869624 0.0
1.37251099761 -0.000830635175138 0.0
1.37358931518 0.000954008090004 0.0
1.37293515207 -0.000547874097428 0.0
1.37171116604 0.00188634729921 0.0
1.37333163496 -0.000880103208446 0.0
1.36971832296 0.00101197837446 0.0
1.37326084325 -0.00161985580181 0.0
0.675858227717 0.000594489717533 0.0
0.642429931505 0.00415579045896 0.0
1.07816673152 -0.121615315396 0.0
0.643492901053 -0.00392194601358 0.0
1.07955360137 0.120098669716 0.0
0.631319291831 -0.00044742017834 0.0
0.679609822382 -0.00463844395045 0.0
0.61952531882 0.00926001239837 0.0
0.629955921199 -0.0101869608781 0.0
0.662936572271 0.00655621655328 0.0
0.665879219223 -0.00546945669861 0.0
0.621771111788 -0.0075689042743 0.0
0.619599028429 0.0097726831554 0.0
0.620885838987 -0.00753819302186 0.0
0.621263781863 0.0097979518746 0.0
0.622041189373 0.00957671242628 0.0
0.612881149271 -0.0056454907827 0.0
0.627596008176 0.00573341442064 0.0
0.614255334683 0.00621715864188 0.0
0.619863640205 -0.0075797230063 0.0
0.614264350742 0.00770324597146 0.0
0.616667438001 -0.00876296175645 0.0
0.617051380284 0.00770476388302 0.0
0.615685629838 -0.00870700403895 0.0
0.622612795018 -0.00578691504198 0.0
1.43377372576 -0.000481151205348 0.0
1.42739736758 -0.00101140209655 0.0
1.34565564518 0.0100517477959 0.0
1.42900174701 0.00125609060657 0.0
1.43096048367 0.00018616750502 0.0
1.42960853615 0.00171391905594 0.0
1.42759208773 0.000470066252384 0.0
1.43003332814 0.00201412569329 0.0
1.42839865311 0.000368146293388 0.0
1.42879865298 -0.00193035758548 0.0
1.40639877971 0.0044638836659 0.0
1.42661911841 0.00225217691269 0.0
1.42836295484 -0.00149851159001 0.0
1.22883393474 0.0146301039209 0.0
1.43367639863 -0.000162892986132 0.0
1.2443851809 -0.000327385240861 0.0
1.24939733948 0.0413994835807 0.0
1.23816082448 1.01588859667e-05 0.0
1.24544461563 0.00939670305195 0.0
1.24066464758 -4.46633957885e-05 0.0
1.23744136126 -0.00116968827868 0.0
1.39920171755 -0.00236385253108 0.0
1.36731529987 -0.0101806308901 0.0
0.551211097532 -0.000171083163738 0.0
0.615001881563 -0.0058692385836 0.0
0.627116590044 0.000533079653226 0.0
0.598862178399 0.00253507911105 0.0
0.564153145617 0.00357028529347 0.0
0.594771126243 -0.0064148491631 0.0
0.552567880837 0.00170662728278 0.0
0.554881652886 -0.00123067279348 0.0
0.551943650666 0.000776809121232 0.0
0.554306746693 9.19851096123e-06 0.0
0.55085228861 0.000850207393731 0.0
0.55296017109 7.83506361061e-05 0.0
0.547113522275 0.00091831502026 0.0
0.55194718502 -0.00220847023836 0.0
0.545588032535 0.00148168064529 0.0
1.22113709296 0.000335812801056 0.0
1.20909912463 -0.00178071394033 0.0
0.620848138608 -0.0082232605933 0.0
0.620615683976 0.00895688445121 0.0
1.01154125803 -0.00665683481718 0.0
1.43941379656 0.000221018118405 0.0
1.39821515888 0.00166785765136 0.0
1.40008081183 -0.000108658956358 0.0
0.568593694791 -0.00850204948454 0.0
1.39860606498 0.00288186463176 0.0
1.40001143951 -0.000497581446931 0.0
1.3978940652 0.00221003827461 0.0
1.39910459546 -0.00101688540181 0.0
1.3980547048 -0.00159160525826 0.0
0.575311687944 -0.0061301424251 0.0
0.568898305763 0.00366905069524 0.0
0.573918037429 -0.00515284465533 0.0
0.571399559819 0.00351368586571 0.0
0.580802471294 0.00305398353041 0.0
0.667265525245 0.00645207700904 0.0
0.621122099201 0.000659124599965 0.0
0.622514569935 -0.00190686398932 0.0
0.623630074741 0.00214383388579 0.0
0.763875879111 -0.0195101102919 0.0
0.60977118004 0.00092368910578 0.0
0.605017462741 -0.00215586829667 0.0