# vtk DataFile Version 2.0
2D Simulation Python
ASCII
DATASET UNSTRUCTURED_GRID
FIELD FieldData 1
NODES 1 2 int
11134 7299

POINTS 11134 double
0.0 1.0 0.0
1.725 1.0 0.0
8.275 1.0 0.0
10.0 1.0 0.0
10.0 0.0 0.0
0.0 0.0 0.0
0.05948275862057954 1.0 0.0
0.1189655172411507 1.0 0.0
0.1784482758617532 1.0 0.0
0.2379310344823185 1.0 0.0
0.2974137931028384 1.0 0.0
0.3568965517233564 1.0 0.0
0.4163793103438745 1.0 0.0
0.475862068964385 1.0 0.0
0.535344827584889 1.0 0.0
0.5948275862053855 1.0 0.0
0.654310344825882 1.0 0.0
0.7137931034463786 1.0 0.0
0.7732758620668752 1.0 0.0
0.8327586206874149 1.0 0.0
0.8922413793081027 1.0 0.0
0.9517241379289384 1.0 0.0
1.011206896549752 1.0 0.0
1.070689655170612 1.0 0.0
1.130172413791474 1.0 0.0
1.189655172412335 1.0 0.0
1.249137931033183 1.0 0.0
1.308620689654105 1.0 0.0
1.368103448274985 1.0 0.0
1.427586206895818 1.0 0.0
1.487068965516628 1.0 0.0
1.546551724137449 1.0 0.0
1.606034482758285 1.0 0.0
1.665517241379139 1.0 0.0
1.784545454545345 1.0 0.0
1.844090909090676 1.0 0.0
1.903636363635991 1.0 0.0
1.963181818181336 1.0 0.0
2.022727272726716 1.0 0.0
2.082272727272112 1.0 0.0
2.141818181817408 1.0 0.0
2.201363636362702 1.0 0.0
2.260909090908037 1.0 0.0
2.320454545453433 1.0 0.0
2.379999999998759 1.0 0.0
2.439545454544053 1.0 0.0
2.499090909089358 1.0 0.0
2.558636363634754 1.0 0.0
2.618181818180109 1.0 0.0
2.677727272725404 1.0 0.0
2.737272727270631 1.0 0.0
2.796818181815906 1.0 0.0
2.856363636361191 1.0 0.0
2.915909090906408 1.0 0.0
2.975454545451703 1.0 0.0
3.034999999997049 1.0 0.0
3.094545454542377 1.0 0.0
3.154090909087591 1.0 0.0
3.21363636363288 1.0 0.0
3.273181818178196 1.0 0.0
3.332727272723555 1.0 0.0
3.392272727268849 1.0 0.0
3.451818181814208 1.0 0.0
3.511363636359524 1.0 0.0
3.570909090904812 1.0 0.0
3.630454545450026 1.0 0.0
3.689999999995355 1.0 0.0
3.749545454540702 1.0 0.0
3.809090909085996 1.0 0.0
3.868636363631291 1.0 0.0
3.928181818176585 1.0 0.0
3.987727272721861 1.0 0.0
4.047272727267021 1.0 0.0
4.106818181812208 1.0 0.0
4.166363636357625 1.0 0.0
4.225909090903122 1.0 0.0
4.285454545448432 1.0 0.0
4.34499999999356 1.0 0.0
4.404545454538917 1.0 0.0
4.464090909084414 1.0 0.0
4.523636363629791 1.0 0.0
4.583181818174936 1.0 0.0
4.642727272720208 1.0 0.0
4.702272727265705 1.0 0.0
4.761818181811142 1.0 0.0
4.821363636356348 1.0 0.0
4.880909090901557 1.0 0.0
4.940454545446997 1.0 0.0
4.999999999992493 1.0 0.0
5.059545454538018 1.0 0.0
5.119090909083717 1.0 0.0
5.17863636362933 1.0 0.0
5.238181818174827 1.0 0.0
5.297727272720321 1.0 0.0
5.357272727265989 1.0 0.0
5.416818181811662 1.0 0.0
5.476363636357158 1.0 0.0
5.535909090902654 1.0 0.0
5.595454545448262 1.0 0.0
5.65499999999396 1.0 0.0
5.714545454539491 1.0 0.0
5.774090909085032 1.0 0.0
5.83363636363093 1.0 0.0
5.893181818176673 1.0 0.0
5.952727272722171 1.0 0.0
6.012272727267668 1.0 0.0
6.071818181813491 1.0 0.0
6.131363636359353 1.0 0.0
6.190909090904849 1.0 0.0
6.250454545450346 1.0 0.0
6.309999999996052 1.0 0.0
6.369545454541951 1.0 0.0
6.429090909087529 1.0 0.0
6.488636363633026 1.0 0.0
6.548181818178611 1.0 0.0
6.60772727272451 1.0 0.0
6.667272727270209 1.0 0.0
6.726818181815705 1.0 0.0
6.786363636361202 1.0 0.0
6.845909090907071 1.0 0.0
6.905454545452889 1.0 0.0
6.964999999998385 1.0 0.0
7.024545454543881 1.0 0.0
7.084090909089378 1.0 0.0
7.143636363634876 1.0 0.0
7.20318181818037 1.0 0.0
7.262727272725868 1.0 0.0
7.322272727271365 1.0 0.0
7.381818181816859 1.0 0.0
7.441363636362357 1.0 0.0
7.500909090907854 1.0 0.0
7.560454545453348 1.0 0.0
7.619999999998846 1.0 0.0
7.679545454544343 1.0 0.0
7.739090909089839 1.0 0.0
7.798636363635335 1.0 0.0
7.858181818180832 1.0 0.0
7.917727272726328 1.0 0.0
7.977272727271824 1.0 0.0
8.036818181817441 1.0 0.0
8.09636363636334 1.0 0.0
8.155909090909008 1.0 0.0
8.215454545454504 1.0 0.0
8.334482758620055 1.0 0.0
8.393965517240051 1.0 0.0
8.453448275859904 1.0 0.0
8.51293103448045 1.0 0.0
8.572413793100301 1.0 0.0
8.631896551720153 1.0 0.0
8.6913793103407 1.0 0.0
8.750862068961245 1.0 0.0
8.810344827581792 1.0 0.0
8.869827586202339 1.0 0.0
8.929310344822884 1.0 0.0
8.988793103443431 1.0 0.0
9.048275862063978 1.0 0.0
9.107758620684523 1.0 0.0
9.16724137930507 1.0 0.0
9.226724137925617 1.0 0.0
9.286206896546162 1.0 0.0
9.345689655167401 1.0 0.0
9.405172413788595 1.0 0.0
9.46465517240963 1.0 0.0
9.524137931030667 1.0 0.0
9.583620689651704 1.0 0.0
9.643103448272907 1.0 0.0
9.702586206894148 1.0 0.0
9.762068965515388 1.0 0.0
9.821551724136627 1.0 0.0
9.881034482757867 1.0 0.0
9.940517241378963 1.0 0.0
10.0 0.9411764705879904 0.0
10.0 0.882352941175982 0.0
10.0 0.8235294117645425 0.0
10.0 0.764705882353186 0.0
10.0 0.7058823529418295 0.0
10.0 0.6470588235304731 0.0
10.0 0.5882352941191167 0.0
10.0 0.5294117647077601 0.0
10.0 0.4705882352960771 0.0
10.0 0.4117647058840672 0.0
10.0 0.3529411764720576 0.0
10.0 0.2941176470600479 0.0
10.0 0.2352941176480381 0.0
10.0 0.1764705882360285 0.0
10.0 0.1176470588240187 0.0
10.0 0.05882352941200908 0.0
9.940119760479043 0.0 0.0
9.880239520958083 0.0 0.0
9.820359281437126 0.0 0.0
9.760479041916167 0.0 0.0
9.70059880239521 0.0 0.0
9.640718562874252 0.0 0.0
9.580838323353293 0.0 0.0
9.520958083832335 0.0 0.0
9.461077844311376 0.0 0.0
9.401197604790418 0.0 0.0
9.34131736526946 0.0 0.0
9.281437125748502 0.0 0.0
9.221556886227543 0.0 0.0
9.161676646706585 0.0 0.0
9.101796407185628 0.0 0.0
9.041916167664668 0.0 0.0
8.982035928143711 0.0 0.0
8.922155688622752 0.0 0.0
8.862275449101794 0.0 0.0
8.802395209580837 0.0 0.0
8.742514970059878 0.0 0.0
8.68263473053892 0.0 0.0
8.622754491017961 0.0 0.0
8.562874251497004 0.0 0.0
8.502994011976044 0.0 0.0
8.443113772455087 0.0 0.0
8.38323353293413 0.0 0.0
8.32335329341317 0.0 0.0
8.263473053892213 0.0 0.0
8.203592814371254 0.0 0.0
8.143712574850296 0.0 0.0
8.083832335329337 0.0 0.0
8.02395209580838 0.0 0.0
7.964071856287422 0.0 0.0
7.904191616766464 0.0 0.0
7.844311377245505 0.0 0.0
7.784431137724548 0.0 0.0
7.72455089820359 0.0 0.0
7.664670658682631 0.0 0.0
7.604790419161674 0.0 0.0
7.544910179640715 0.0 0.0
7.485029940119757 0.0 0.0
7.425149700598799 0.0 0.0
7.36526946107784 0.0 0.0
7.305389221556883 0.0 0.0
7.245508982035925 0.0 0.0
7.185628742514966 0.0 0.0
7.125748502994009 0.0 0.0
7.065868263473051 0.0 0.0
7.005988023952092 0.0 0.0
6.946107784431135 0.0 0.0
6.886227544910177 0.0 0.0
6.826347305389219 0.0 0.0
6.766467065868261 0.0 0.0
6.706586826347303 0.0 0.0
6.646706586826344 0.0 0.0
6.586826347305387 0.0 0.0
6.526946107784428 0.0 0.0
6.46706586826347 0.0 0.0
6.407185628742512 0.0 0.0
6.347305389221554 0.0 0.0
6.287425149700596 0.0 0.0
6.227544910179638 0.0 0.0
6.16766467065868 0.0 0.0
6.107784431137722 0.0 0.0
6.047904191616764 0.0 0.0
5.988023952095805 0.0 0.0
5.928143712574848 0.0 0.0
5.868263473053889 0.0 0.0
5.808383233532932 0.0 0.0
5.748502994011973 0.0 0.0
5.688622754491016 0.0 0.0
5.628742514970057 0.0 0.0
5.568862275449099 0.0 0.0
5.508982035928141 0.0 0.0
5.449101796407183 0.0 0.0
5.389221556886225 0.0 0.0
5.329341317365267 0.0 0.0
5.269461077844309 0.0 0.0
5.209580838323351 0.0 0.0
5.149700598802393 0.0 0.0
5.089820359281434 0.0 0.0
5.029940119760477 0.0 0.0
4.970059880239518 0.0 0.0
4.91017964071856 0.0 0.0
4.850299401197602 0.0 0.0
4.790419161676644 0.0 0.0
4.730538922155686 0.0 0.0
4.670658682634729 0.0 0.0
4.610778443113769 0.0 0.0
4.550898203592812 0.0 0.0
4.491017964071854 0.0 0.0
4.431137724550896 0.0 0.0
4.371257485029938 0.0 0.0
4.31137724550898 0.0 0.0
4.251497005988022 0.0 0.0
4.191616766467064 0.0 0.0
4.131736526946106 0.0 0.0
4.071856287425147 0.0 0.0
4.01197604790419 0.0 0.0
3.952095808383231 0.0 0.0
3.892215568862274 0.0 0.0
3.832335329341316 0.0 0.0
3.772455089820358 0.0 0.0
3.712574850299399 0.0 0.0
3.652694610778441 0.0 0.0
3.592814371257483 0.0 0.0
3.532934131736526 0.0 0.0
3.473053892215567 0.0 0.0
3.41317365269461 0.0 0.0
3.353293413173652 0.0 0.0
3.293413173652693 0.0 0.0
3.233532934131736 0.0 0.0
3.173652694610777 0.0 0.0
3.113772455089819 0.0 0.0
3.053892215568861 0.0 0.0
2.994011976047903 0.0 0.0
2.934131736526945 0.0 0.0
2.874251497005988 0.0 0.0
2.814371257485028 0.0 0.0
2.754491017964071 0.0 0.0
2.694610778443113 0.0 0.0
2.634730538922155 0.0 0.0
2.574850299401197 0.0 0.0
2.514970059880238 0.0 0.0
2.455089820359281 0.0 0.0
2.395209580838323 0.0 0.0
2.335329341317365 0.0 0.0
2.275449101796406 0.0 0.0
2.215568862275448 0.0 0.0
2.15568862275449 0.0 0.0
2.095808383233532 0.0 0.0
2.035928143712574 0.0 0.0
1.976047904191615 0.0 0.0
1.916167664670658 0.0 0.0
1.8562874251497 0.0 0.0
1.796407185628741 0.0 0.0
1.736526946107784 0.0 0.0
1.676646706586826 0.0 0.0
1.616766467065867 0.0 0.0
1.55688622754491 0.0 0.0
1.49700598802395 0.0 0.0
1.437125748502995 0.0 0.0
1.377245508982035 0.0 0.0
1.317365269461078 0.0 0.0
1.257485029940119 0.0 0.0
1.19760479041916 0.0 0.0
1.137724550898204 0.0 0.0
1.077844311377245 0.0 0.0
1.017964071856287 0.0 0.0
0.958083832335328 0.0 0.0
0.8982035928143723 0.0 0.0
0.8383233532934131 0.0 0.0
0.7784431137724539 0.0 0.0
0.7185628742514965 0.0 0.0
0.658682634730539 0.0 0.0
0.5988023952095816 0.0 0.0
0.5389221556886223 0.0 0.0
0.4790419161676631 0.0 0.0
0.4191616766467074 0.0 0.0
0.3592814371257482 0.0 0.0
0.2994011976047908 0.0 0.0
0.2395209580838316 0.0 0.0
0.1796407185628741 0.0 0.0
0.1197604790419167 0.0 0.0
0.05988023952095922 0.0 0.0
0.0 0.0588235294116454 0.0
0.0 0.1176470588233168 0.0
0.0 0.1764705882349203 0.0
0.0 0.2352941176465135 0.0
0.0 0.2941176470581066 0.0
0.0 0.3529411764696997 0.0
0.0 0.4117647058812929 0.0
0.0 0.4705882352928861 0.0
0.0 0.5294117647046425 0.0
0.0 0.5882352941165623 0.0
0.0 0.6470588235284821 0.0
0.0 0.7058823529404019 0.0
0.0 0.7647058823523216 0.0
0.0 0.8235294117642414 0.0
0.0 0.8823529411761613 0.0
0.0 0.941176470588081 0.0
9.496671432578891 0.5021202775764965 0.0
0.503328567417594 0.502120277573701 0.0
8.960949321310713 0.5028360638807294 0.0
1.039050678683441 0.5028360638815293 0.0
8.421726050444477 0.5013914029598456 0.0
1.578273949553219 0.5013914029599852 0.0
2.110012838156869 0.501717680037117 0.0
[...]
POINT_DATA 11134
VECTORS vector double
1.0 0.0 0.0
0.0 0.0 0.0
0.0 0.0 0.0
0.0 0.0 0.0
1.1226259811 2.98962117269e-05 0.0
1.0 0.0 0.0
0.0 0.0 0.0
0.0 0.0 0.0
0.0 0.0 0.0
0.0 0.0 0.0
0.0 0.0 0.0
0.0 0.0 0.0
0.0 0.0 0.0
0.0 0.0 0.0
0.0 0.0 0.0
0.0 0.0 0.0
0.0 0.0 0.0
0.0 0.0 0.0
0.0 0.0 0.0
0.0 0.0 0.0
0.0 0.0 0.0
0.0 0.0 0.0
0.0 0.0 0.0
0.0 0.0 0.0
0.0 0.0 0.0
0.0 0.0 0.0
0.0 0.0 0.0
0.0 0.0 0.0
0.0 0.0 0.0
0.0 0.0 0.0
0.0 0.0 0.0
0.0 0.0 0.0
0.0 0.0 0.0
0.0 0.0 0.0
0.0 0.0 0.0
0.0 0.0 0.0
0.0 0.0 0.0
0.0 0.0 0.0
0.0 0.0 0.0
0.0 0.0 0.0
0.0 0.0 0.0
0.0 0.0 0.0
0.0 0.0 0.0
0.0 0.0 0.0
0.0 0.0 0.0
0.0 0.0 0.0
0.0 0.0 0.0
0.0 0.0 0.0
0.0 0.0 0.0
0.0 0.0 0.0
0.0 0.0 0.0
0.0 0.0 0.0
0.0 0.0 0.0
0.0 0.0 0.0
0.0 0.0 0.0
0.0 0.0 0.0
0.0 0.0 0.0
0.0 0.0 0.0
0.0 0.0 0.0
0.0 0.0 0.0
0.0 0.0 0.0
0.0 0.0 0.0
0.0 0.0 0.0
0.0 0.0 0.0
0.0 0.0 0.0
0.0 0.0 0.0
0.0 0.0 0.0
0.0 0.0 0.0
0.0 0.0 0.0
0.0 0.0 0.0
0.0 0.0 0.0
0.0 0.0 0.0
0.0 0.0 0.0
0.0 0.0 0.0
0.0 0.0 0.0
0.0 0.0 0.0
0.0 0.0 0.0
0.0 0.0 0.0
0.0 0.0 0.0
0.0 0.0 0.0
0.0 0.0 0.0
0.0 0.0 0.0
0.0 0.0 0.0
0.0 0.0 0.0
0.0 0.0 0.0
0.0 0.0 0.0
0.0 0.0 0.0
0.0 0.0 0.0
0.0 0.0 0.0
0.0 0.0 0.0
0.0 0.0 0.0
0.0 0.0 0.0
0.0 0.0 0.0
0.0 0.0 0.0
0.0 0.0 0.0
0.0 0.0 0.0
0.0 0.0 0.0
0.0 0.0 0.0
0.0 0.0 0.0
0.0 0.0 0.0
0.0 0.0 0.0
0.0 0.0 0.0
0.0 0.0 0.0
0.0 0.0 0.0
0.0 0.0 0.0
0.0 0.0 0.0
0.0 0.0 0.0
0.0 0.0 0.0
0.0 0.0 0.0
0.0 0.0 0.0
0.0 0.0 0.0
0.0 0.0 0.0
0.0 0.0 0.0
0.0 0.0 0.0
0.0 0.0 0.0
0.0 0.0 0.0
0.0 0.0 0.0
0.0 0.0 0.0
0.0 0.0 0.0
0.0 0.0 0.0
0.0 0.0 0.0
0.0 0.0 0.0
0.0 0.0 0.0
0.0 0.0 0.0
0.0 0.0 0.0
0.0 0.0 0.0
0.0 0.0 0.0
0.0 0.0 0.0
0.0 0.0 0.0
0.0 0.0 0.0
0.0 0.0 0.0
0.0 0.0 0.0
0.0 0.0 0.0
0.0 0.0 0.0
0.0 0.0 0.0
0.0 0.0 0.0
0.0 0.0 0.0
0.0 0.0 0.0
0.0 0.0 0.0
0.0 0.0 0.0
0.0 0.0 0.0
0.0 0.0 0.0
0.0 0.0 0.0
0.0 0.0 0.0
0.0 0.0 0.0
0.0 0.0 0.0
0.0 0.0 0.0
0.0 0.0 0.0
0.0 0.0 0.0
0.0 0.0 0.0
0.0 0.0 0.0
0.0 0.0 0.0
0.0 0.0 0.0
0.0 0.0 0.0
0.0 0.0 0.0
0.0 0.0 0.0
0.0 0.0 0.0
0.0 0.0 0.0
0.0 0.0 0.0
0.0 0.0 0.0
0.0 0.0 0.0
0.0 0.0 0.0
0.0 0.0 0.0
0.0 0.0 0.0
0.0 0.0 0.0
0.0 0.0 0.0
0.0 0.0 0.0
0.0 0.0 0.0
0.0 0.0 0.0
0.0 0.0 0.0
0.0 0.0 0.0
0.379828310352 0.0626923057153 0.0
0.680199839773 0.0415291584829 0.0
0.880199058507 0.0247450019347 0.0
1.01641090904 0.0102537543876 0.0
1.08890596846 0.00487632142935 0.0
1.10982157271 0.00347914923097 0.0
1.11978060357 0.000894975944346 0.0
1.12332905928 0.000288314993522 0.0
1.12392044461 0.00010450382532 0.0
1.12412486545 -2.77310965608e-05 0.0
1.12403941771 -6.83879541457e-05 0.0
1.12364166256 -5.45830633107e-05 0.0
1.1231750533 2.49105743364e-05 0.0
1.12304538448 -3.08324393079e-05 0.0
1.12355831901 -3.69311311633e-05 0.0
1.12320071645 6.09646681074e-05 0.0
1.12323247911 2.08223732183e-05 0.0
1.12324191686 -1.44124022858e-05 0.0
1.12314580984 -3.81455117291e-05 0.0
1.12314223337 4.06822035561e-05 0.0
1.12324553723 6.12637582489e-06 0.0
1.12318908881 2.22612615303e-06 0.0
1.12347735878 7.23160750013e-07 0.0
1.12312668832 1.24463484228e-05 0.0
1.12339706971 -2.02969545214e-05 0.0
1.1231704981 -1.06706392048e-05 0.0
1.12310316966 4.85909978434e-06 0.0
1.1234936756 2.46534036486e-06 0.0
1.12329130028 2.9579114539e-05 0.0
1.12335319886 1.71391654304e-05 0.0
1.12330690115 -2.8963430706e-05 0.0
1.12320220805 -2.76389378039e-05 0.0
1.12317398762 1.89143421008e-05 0.0
1.1235349413 -1.45175856712e-05 0.0
1.12324680305 1.90363290678e-05 0.0
1.12323103166 -2.48597794549e-05 0.0
1.12313547172 -4.49006864536e-06 0.0
1.12307320173 -1.65080442831e-05 0.0
1.12308366473 7.86665499725e-06 0.0
1.12336432234 -6.07880903825e-05 0.0
1.1229285525 4.25818331705e-05 0.0
1.12293501522 -2.58803759256e-05 0.0
1.12283134031 -1.34245326228e-05 0.0
1.12280317629 3.72598247175e-06 0.0
1.12270133928 -7.1711045554e-05 0.0
1.12251933933 4.44650696516e-06 0.0
1.12256137418 6.85532523247e-06 0.0
1.12287168894 -4.00154444646e-06 0.0
1.12241688166 -2.49206447533e-05 0.0
1.12271419332 -5.34909077631e-06 0.0
1.12176568108 3.36518676857e-06 0.0
1.12254624709 -2.0215391403e-05 0.0
1.1223245399 3.66090138893e-06 0.0
1.12227104634 -3.03607029628e-05 0.0
1.12218248524 -8.02493933858e-06 0.0
1.12223767093 3.59735392509e-05 0.0
1.12254498163 -1.48501572875e-05 0.0
1.12207707535 -4.13165748131e-05 0.0
1.12244428896 4.01883958141e-05 0.0
1.12153923749 -1.38323928785e-06 0.0
1.12244487126 -1.62957112235e-05 0.0
1.12217996303 1.20174398863e-05 0.0
1.12216943288 -3.02412178012e-05 0.0
1.12212515009 9.40188786768e-06 0.0
1.12213603219 3.62454657874e-06 0.0
1.12237420346 -2.1184491466e-06 0.0
1.12197479238 -3.74707392671e-05 0.0
1.1224229993 3.57257172347e-05 0.0
1.12147785979 -1.77797475259e-06 0.0
1.12234393539 1.00092974524e-05 0.0
1.12218311054 2.10380069129e-05 0.0
1.12212753648 -5.13725081644e-05 0.0
1.12203760993 1.03090570842e-05 0.0
1.12212441838 3.40666929584e-05 0.0
1.12242050097 -9.70110285896e-06 0.0
1.12203765112 -7.54183535744e-06 0.0
1.12245428126 1.04449538754e-05 0.0
1.12151122552 1.07683707634e-05 0.0
1.12230573807 -3.1505759357e-06 0.0
1.12211506504 -1.71803001209e-06 0.0
1.12205651469 -4.15194850703e-05 0.0
1.12210704361 5.22859371271e-05 0.0
1.12226097155 2.76549272261e-05 0.0
1.12227484628 -2.27065558919e-05 0.0
1.1226207177 3.18237976652e-05 0.0
1.12244621708 3.1993707961e-05 0.0
1.12244877392 3.16870280644e-05 0.0
1.12257766324 -5.3841481888e-08 0.0
1.12240574541 -3.33022358232e-05 0.0
1.12262618708 6.5851621204e-05 0.0
1.12267147626 9.17387147731e-06 0.0
1.12269444901 -7.44983780791e-06 0.0
1.12263194294 -2.67734563834e-05 0.0
1.12264468067 2.60674370856e-05 0.0
1.12266184806 -3.01277854458e-05 0.0
1.12249334983 -1.61016881035e-05 0.0
1.12235149662 -2.87055507406e-05 0.0
1.12233496312 1.6035378848e-05 0.0
1.12233415899 -2.34557010784e-05 0.0
1.12237512936 -6.7976559342e-05 0.0
1.1220357169 5.2663644906e-05 0.0
1.12221781184 -1.39777714503e-05 0.0
1.12209089248 -2.34439760425e-05 0.0
1.12211357315 -1.7035834456e-05 0.0
1.12236173181 -1.79546023687e-05 0.0
1.12202023482 1.62841174822e-05 0.0
1.12204204854 -8.86772372682e-06 0.0
1.12201272227 1.9772185913e-06 0.0
1.12189569842 -5.1595428177e-05 0.0
1.1222020075 4.62352610515e-05 0.0
1.122260682 1.58549749591e-05 0.0
1.12139490294 -3.11093304416e-06 0.0
1.1223367742 2.2291102981e-06 0.0
1.1220357696 1.23312988297e-05 0.0
1.1223423532 -5.01652882029e-06 0.0
1.12205854492 -1.70977921612e-05 0.0
1.12196005662 -4.07263854191e-05 0.0
1.12199795799 5.70078007168e-05 0.0
1.12212461981 1.2375616016e-05 0.0
1.1223752594 -2.6320181244e-05 0.0
1.12143232092 1.53231159289e-05 0.0
1.12236312928 -2.25694083219e-05 0.0
1.1219744605 4.42000487375e-05 0.0
1.12233277707 -2.85701368038e-05 0.0
1.12199047524 -2.96507217717e-05 0.0
1.12190267168 -1.75075619907e-05 0.0
1.12197533014 4.8057944107e-05 0.0
1.12205275154 -9.47563957174e-06 0.0
1.12224843196 -9.7246052302e-06 0.0
1.12135966463 9.73612281304e-07 0.0
1.12231138365 -2.12583359571e-05 0.0
1.12191822851 3.58168944736e-05 0.0
1.12233366472 -5.15984156255e-07 0.0
1.12206949056 -5.56120614449e-07 0.0
1.12209492853 5.27741399367e-06 0.0
1.12227491724 6.59564963565e-05 0.0
1.12240671072 1.63655107849e-05 0.0
1.1227649324 3.86746808546e-05 0.0
1.12191953889 -4.75048987585e-06 0.0
1.12292330944 -4.37764150056e-06 0.0
1.12265282314 5.77814451632e-05 0.0
1.12317940517 3.43997104688e-05 0.0
1.12294153533 -1.8701451168e-05 0.0
1.12292581864 1.1199609674e-05 0.0
1.12303008206 2.83987064913e-05 0.0
1.12305711712 -1.81019461075e-05 0.0
1.12312846195 -4.93560417692e-05 0.0
1.12217833645 7.05967807826e-06 0.0
1.12299353383 -5.02161139377e-05 0.0
1.1224502761 -1.95249755053e-05 0.0
1.12259136611 -0.00010292531274 0.0
1.12187125537 -0.000105777511997 0.0
1.12144365368 -0.000104312032806 0.0
1.12098742273 -3.92732122807e-05 0.0
1.12042724734 -0.000233247447232 0.0
1.11967651339 -0.00015282197379 0.0
1.118583809 -0.000171181153182 0.0
1.11755860696 -0.000317331234035 0.0
1.11613356799 -0.000440093098268 0.0
1.11397827248 -0.000337261456488 0.0
1.11171991914 -0.000685886801782 0.0
1.109504424 -0.000750202466254 0.0
1.10606448467 -0.000614567590497 0.0
1.10311317429 -0.000851725564043 0.0
1.09832136537 -0.00138328333786 0.0
1.09251929666 -0.000986660165565 0.0
1.08691066563 -0.00136053502025 0.0
1.08190171178 -0.00121872009666 0.0
1.07408267939 -0.00126590945991 0.0
1.06798657147 -0.00181669836611 0.0
1.05848503778 -0.00292936386427 0.0
1.05024494583 -0.0010788215809 0.0
1.04317306152 -0.00106768737925 0.0
1.03640004288 -0.00287381524568 0.0
1.02807726954 -0.000778670505947 0.0
1.02203819968 -0.00195749807902 0.0
1.0158729659 -0.000837937282512 0.0
1.01132168151 -0.0010711004095 0.0
1.00775346896 -0.000802013112922 0.0
1.00413655615 -0.000606717503295 0.0
1.00228742241 -0.00032576526145 0.0
1.00080283137 -0.000209952725511 0.0
1.0 0.0 0.0
1.0 0.0 0.0
1.0 0.0 0.0
1.0 0.0 0.0
1.0 0.0 0.0
1.0 0.0 0.0
1.0 0.0 0.0
1.0 0.0 0.0
1.0 0.0 0.0
1.0 0.0 0.0
1.0 0.0 0.0
1.0 0.0 0.0
1.0 0.0 0.0
1.0 0.0 0.0
1.0 0.0 0.0
1.0 0.0 0.0
1.12440973028 0.000113055396776 0.0
1.07395489518 -0.0653410157497 0.0
1.12437152376 -4.47463790697e-05 0.0
1.13121066534 -0.0375022879853 0.0
1.12374951539 -0.000843441484032 0.0
1.12589550539 -0.00403061998446 0.0
1.12521953753 -0.000820854516934 0.0
1.12326820673 -0.000490070356651 0.0
1.12327584178 0.00160366806601 0.0
1.12300610694 -0.000368477030649 0.0
1.12249999836 -0.000194260801795 0.0
1.12314742631 -0.000140048009126 0.0
1.1230937143 -3.68952616177e-05 0.0
1.12298000152 -0.000282482572943 0.0
1.12310681141 0.000165199487051 0.0
1.1234630133 0.00128134001737 0.0
1.12261148112 -0.000170291683004 0.0
1.12451682011 -0.00109876892009 0.0
1.10225283112 0.000482197611905 0.0
1.16524130817 -0.0742310029264 0.0
1.1244795709 5.5271086166e-05 0.0
1.07699361276 -0.0413396391507 0.0
1.10238991478 -0.000265075395135 0.0
1.11288441738 -0.00558644156164 0.0
1.12306686651 6.1132221808e-05 0.0
1.10074013364 -9.22345292832e-05 0.0
1.1031347797 -0.000675381063798 0.0
1.10155298595 0.00298444640538 0.0
1.10111570056 0.000311921993941 0.0
1.12306733259 0.000225471262148 0.0
1.12322808884 -6.70354463725e-05 0.0
1.09989261043 0.00112857457363 0.0
1.10077983526 0.000881069662807 0.0
1.10089961642 0.000455899917799 0.0
1.10109436319 0.000750214970503 0.0
1.10078155363 0.000794119553018 0.0
1.09765554858 0.000180865235718 0.0
1.09833539728 0.00118296177058 0.0
1.1232263567 0.00018157559141 0.0
1.12305523961 -0.000304398821291 0.0
1.12311853298 0.000228991918612 0.0
1.12293922616 0.000192802812604 0.0
1.12439417578 0.000340722804758 0.0
1.12317038159 -1.83003300903e-05 0.0
1.1231185916 -0.00038142847446 0.0
1.12351199367 -0.00154567471735 0.0
1.11942499178 -0.0116360052351 0.0
1.12410673049 -0.000297749402237 0.0
1.12345721562 0.000304201093204 0.0
1.12307446457 -0.00065397705101 0.0
1.08774727818 0.000728409924057 0.0
1.08763096853 -0.00207802209205 0.0
1.09993827927 -0.112677583259 0.0
1.08304952201 0.00171223851586 0.0
1.12349718354 8.42844458171e-05 0.0
1.01651872195 -0.0249376578533 0.0
1.04684666508 -0.000614791224496 0.0
1.07970367909 -0.0201869180314 0.0
1.03457063251 -0.00307724580526 0.0
1.03591304592 -0.00110366018606 0.0
1.12254397802 5.39615943437e-05 0.0
1.12274793371 -4.54097886661e-05 0.0
1.12260784549 -9.19495183979e-05 0.0
1.12207492759 -9.45978883887e-05 0.0
1.04669922776 -0.00201448581057 0.0
1.04793169522 -0.00104898866046 0.0
1.0459766128 0.00323481175585 0.0
1.04659445646 -0.00267535373828 0.0
1.04735392611 -0.000671247631041 0.0
1.04623907304 -0.00214123049881 0.0
1.04692767555 0.000142132707921 0.0
1.04654688276 -0.00287361185007 0.0
1.04704367059 0.00028296551624 0.0
1.12258483125 0.000302712361396 0.0
1.12250069767 -1.24080767444e-05 0.0
1.12270680741 1.08622127919e-05 0.0
1.12311507325 0.000539791007031 0.0
1.12273237682 -0.000104199725404 0.0
1.04043156364 0.00330637905526 0.0
1.03968058098 -0.000857092871543 0.0
1.12404851002 -0.000282716899666 0.0
1.12314276011 -0.000243587992095 0.0
1.12387973748 -3.87004594666e-05 0.0
1.09751150139 -0.0250427501162 0.0
1.12335013625 -0.000269787451305 0.0
1.1217595052 -0.00327548365158 0.0
1.0460330833 0.00198948759837 0.0
1.17478353307 -0.10699682585 0.0
1.12358515969 9.0624985603e-05 0.0
1.04112246376 -0.0290616459001 0.0
1.00649857637 0.000477975660065 0.0
1.12335877214 -0.000255318991225 0.0
1.0195942208 -0.0431623252777 0.0
1.12352181049 0.000282073850553 0.0
1.12438429131 0.00028359927254 0.0
1.12275224674 -0.00129865270673 0.0
1.1225767845 0.000279838109085 0.0
1.12313035643 0.000180977233256 0.0
1.12240919608 0.000468280702779 0.0
1.1232140405 -8.71400314789e-05 0.0
1.1233054198 8.83675588692e-06 0.0
1.12440539372 -0.000453256117626 0.0
1.12777801691 -0.00927650145978 0.0
1.1235321697 -0.000446834926551 0.0
1.12509033202 -0.00209133769037 0.0
1.12230323205 0.000204033894825 0.0
1.12310678359 0.00028353197747 0.0
1.12455589789 0.00136055308185 0.0
1.12319100416 1.62353744904e-05 0.0
1.12219374003 -0.0585599921588 0.0
1.1243830409 0.000162212696843 0.0
1.12351156572 -0.000107067532333 0.0
1.10828041878 -0.0104880867219 0.0
1.12208125739 7.58400673557e-05 0.0
1.12207702112 -7.97568728371e-05 0.0
1.12202676609 -8.8469485208e-06 0.0
1.12205166789 -5.11806438651e-05 0.0
1.12188874401 0.000169101757103 0.0
1.12211649665 -0.000115275934265 0.0
1.12277811167 0.000387130257949 0.0
1.1223622296 -0.000249440697294 0.0
1.12257495688 -0.000581066126752 0.0
1.11728158535 -0.00485466132419 0.0
1.12285178006 -0.000228219329136 0.0
0.909003919531 0.00300629048587 0.0
0.959822279052 -0.0286057741681 0.0
0.902882872168 -0.00150324730519 0.0
0.903522878636 0.000732001327203 0.0
0.892232666301 0.00104571038 0.0
0.895692407375 -0.00128887996796 0.0
0.906873837142 -0.00298437974046 0.0
0.897661527692 0.00147137554252 0.0
0.90172644659 0.0027475688516 0.0
0.905160695468 0.000890206204925 0.0
0.900663993871 0.00207488871381 0.0
0.90419195536 -0.000331904124327 0.0
0.903523251795 -0.000895645214 0.0
0.903786016521 0.0017790673241 0.0
0.901315612423 0.000942198177632 0.0
0.900663144314 0.000566403693804 0.0
0.902186062657 -0.000269037081732 0.0
0.90355205831 0.00162939123084 0.0
0.896911421966 0.000108522509328 0.0
0.899858158997 -0.000299503675148 0.0
0.901134510187 -0.000364143369629 0.0
0.900316023082 0.000939673156517 0.0
0.90223455148 -0.000237130095339 0.0
0.900606241711 9.24562503301e-05 0.0
0.901823278416 -0.00263834758929 0.0
0.902276337704 0.00252515061371 0.0
1.12288019231 0.000104879820355 0.0
1.12353622811 0.000291156932022 0.0
1.10999171165 -0.071493423746 0.0
1.12233566046 -0.00014527998942 0.0
1.12247622049 -0.000386382361305 0.0
1.12506818232 0.000684998437595 0.0
1.1225088851 9.02599637771e-05 0.0
1.12225478476 0.00100886702975 0.0
1.12251972517 0.000138193128577 0.0
1.12266386728 -0.000499884990523 0.0
1.12427970047 -0.00151876698232 0.0
1.12295222278 -0.000374667750469 0.0
1.12213724967 3.03658372726e-06 0.0
1.12287691754 -0.000216380599088 0.0
1.12255589277 0.00022784595827 0.0
1.13274738517 -0.018662562888 0.0
1.12411347088 -0.000198061942442 0.0
0.870993824334 0.00318422640831 0.0
0.871740315884 3.29768297629e-05 0.0
1.12359071068 5.76743407418e-05 0.0
1.07640484855 -0.0207608104049 0.0
1.12543681997 -0.153300582663 0.0
0.902564722706 0.00160932661143 0.0
0.885806463474 0.00692795386922 0.0
0.997364276218 -0.0599856598803 0.0
1.12311780279 -0.000232654012554 0.0
1.1221362815 -0.00132958871522 0.0
1.12225081247 -0.000217010179711 0.0
1.12317346932 0.000164358717027 0.0
1.12214555725 -0.000109937349074 0.0
1.12216716821 0.00033416084257 0.0
1.12306313792 1.75727871674e-05 0.0
1.00473611649 -0.0085635313234 0.0
1.12210807202 -0.000110734968798 0.0
1.12196858077 7.54797271037e-06 0.0
1.12234791888 -4.05107115359e-05 0.0
1.12214868557 5.40721272684e-05 0.0
1.12240748336 0.000238757143984 0.0
1.12222318601 8.96815680921e-05 0.0
1.12210505551 -5.97002357556e-05 0.0
1.1248926058 -5.92296368244e-05 0.0
1.11608228177 -0.0229635615768 0.0
0.870634814437 0.00372180790047 0.0
0.875004597932 -0.00455940466582 0.0
1.1236403506 -0.000308703966546 0.0
1.12466629779 -0.000955492013311 0.0
1.12362819246 6.79927485234e-05 0.0
1.05528599974 -0.0216889239487 0.0
1.12436669209 -0.000386839317505 0.0
1.12317196937 -0.00665274826924 0.0
1.1233685594 -0.000229030140266 0.0
1.12412398379 0.000983704386124 0.0
1.1232609489 3.52039640005e-06 0.0
1.1228270387 0.000116484938955 0.0
1.12329848785 -0.000176297267475 0.0
1.12329796259 1.38571148952e-05 0.0
1.1232703937 0.00015438002981 0.0
0.859494904155 0.00324126588739 0.0
0.835970589714 0.00102361171886 0.0
1.12275142481 -0.000353751994899 0.0
1.12261718075 2.15382399547e-05 0.0
0.850734609492 0.00438940671431 0.0
1.1193847532 -0.119396518865 0.0
1.12348564765 9.6817150778e-05 0.0
1.02139231549 -0.0154024040474 0.0
1.12421330616 0.000567087119026 0.0
1.12336330635 -0.00044812178802 0.0
1.12460510861 -0.000321071178111 0.0
1.12418002242 -0.000740655923031 0.0
1.12317644117 0.000104818713772 0.0
1.12328624134 1.65523892236e-05 0.0
1.12307627795 -1.92926594894e-05 0.0
1.12301092496 -0.000101323322005 0.0
1.12322295402 -6.27111459884e-05 0.0
1.11576082451 0.000176016011972 0.0
1.15428923665 -0.049332387453 0.0
1.12325683553 0.000825187702047 0.0
1.12316132814 -8.85388948931e-05 0.0
1.12500167465 2.53038583599e-05 0.0
1.12342541148 -0.000369919382656 0.0
1.11387890271 -5.18765953089e-05 0.0
1.11384201155 -0.000247810179941 0.0
1.11459512227 1.62018536126e-05 0.0
1.115341762 -0.000716738427681 0.0
1.12001348479 -0.00483693447607 0.0
1.11368233272 -0.000577493133826 0.0
1.11688939974 -0.00211434943438 0.0
1.11305178351 -0.000605810212109 0.0
1.11432376953 0.000457689748002 0.0
1.1141027348 0.00237154428189 0.0
1.11451778398 2.20010150232e-05 0.0
1.11550026784 0.00255353019892 0.0
1.11382648005 -0.00105319186284 0.0
1.06526207165 -0.0486535484767 0.0
1.12506555903 0.000194526618766 0.0
1.11666631267 -7.0544680173e-05 0.0
1.11625647062 -0.0025044077734 0.0
1.12242970464 0.000575776771234 0.0
1.06174990509 -0.0715749576125 0.0
1.02091349996 -0.0533440077284 0.0
1.11369791206 0.00013411698308 0.0
1.00527066025 -0.0167118620224 0.0
1.12407649738 0.000105011549844 0.0
1.12462913157 0.000222464208267 0.0
1.03641943345 -0.0383053048686 0.0
1.12311951801 6.07005562013e-05 0.0
1.12360793901 0.000475838201024 0.0
1.11453952177 0.00115990762362 0.0
1.1149259707 0.000688067016723 0.0
1.12422069757 -0.000461644678402 0.0
1.12459670584 -0.00313774522946 0.0
1.10747248071 -0.0395015940981 0.0
1.12490433483 -1.00011221444e-05 0.0
1.10505927643 -0.00144575244862 0.0
1.10740625759 0.000925771882637 0.0
1.10507149701 -0.00134204438846 0.0
1.10489618024 0.00232391980099 0.0
1.10522230035 -0.00105120084533 0.0
1.10614716574 -0.000328400771775 0.0
1.10519857737 -0.00133974321875 0.0
1.10607880071 0.000324610340468 0.0
1.10643885876 0.000569096303285 0.0
1.10723421042 -0.0026029601301 0.0
1.1061987763 5.09193126059e-05 0.0
1.12430272133 -0.0146289898524 0.0
1.10233307169 -0.000924836403895 0.0
1.12286188223 -0.000979546141705 0.0
1.12455596536 0.00116433677706 0.0
1.12370485103 -0.0850982276947 0.0
1.11928358601 0.000275070722156 0.0
1.11254367749 -0.00572409767583 0.0
1.12379049117 -2.03504612474e-05 0.0
1.10268258147 0.00106556734437 0.0
1.12918697144 -0.105886310793 0.0
1.09754301869 -0.0104281237664 0.0
1.12367331952 -2.87000448914e-05 0.0
1.12146739348 1.07278643853e-05 0.0
1.12140696892 2.44432503455e-05 0.0
1.12144520528 -5.23483407587e-05 0.0
1.12139414629 -7.98446000221e-05 0.0
1.12124505156 4.91148385699e-05 0.0
1.1213963862 -4.01124167752e-05 0.0
1.12184592827 0.000243137635112 0.0
1.1228143843 -0.00025217018146 0.0
1.1222950589 -4.96721599203e-05 0.0
1.1196282424 -0.0022885826189 0.0
1.12343569028 -0.000108705731663 0.0
0.743872396668 -0.000932797131257 0.0
0.760587627911 -0.010574545454 0.0
0.729322142208 0.00665682983403 0.0
0.73159649326 -0.00365667700415 0.0
0.675110379032 -0.00740629160566 0.0
0.674344470211 0.00116856555476 0.0
0.739670243517 -0.00248706481945 0.0
0.745341705366 -0.00226382191791 0.0
0.75079734476 0.000212464608274 0.0
0.751681426064 -0.00308510453381 0.0
0.753056452153 -0.00342567018539 0.0