# vtk DataFile Version 2.0
2D Simulation Python
ASCII
DATASET UNSTRUCTURED_GRID
FIELD FieldData 1
NODES 1 2 int
14968 7299

POINTS 14968 double
0.0 1.0 0.0
1.725 1.0 0.0
8.275 1.0 0.0
10.0 1.0 0.0
10.0 0.0 0.0
0.0 0.0 0.0
0.05948275862057954 1.0 0.0
0.1189655172411507 1.0 0.0
0.1784482758617532 1.0 0.0
0.2379310344823185 1.0 0.0
0.2974137931028384 1.0 0.0
0.3568965517233564 1.0 0.0
0.4163793103438745 1.0 0.0
0.475862068964385 1.0 0.0
0.535344827584889 1.0 0.0
0.5948275862053855 1.0 0.0
0.654310344825882 1.0 0.0
0.7137931034463786 1.0 0.0
0.7732758620668752 1.0 0.0
0.8327586206874149 1.0 0.0
0.8922413793081027 1.0 0.0
0.9517241379289384 1.0 0.0
1.011206896549752 1.0 0.0
1.070689655170612 1.0 0.0
1.130172413791474 1.0 0.0
1.189655172412335 1.0 0.0
1.249137931033183 1.0 0.0
1.308620689654105 1.0 0.0
1.368103448274985 1.0 0.0
1.427586206895818 1.0 0.0
1.487068965516628 1.0 0.0
1.546551724137449 1.0 0.0
1.606034482758285 1.0 0.0
1.665517241379139 1.0 0.0
0.02974137931029072 1.0 0.0
0.08922413793086324 1.0 0.0
0.1487068965514534 1.0 0.0
0.208189655172049 1.0 0.0
0.2676724137925698 1.0 0.0
0.3271551724130939 1.0 0.0
0.3866379310336222 1.0 0.0
0.4461206896541293 1.0 0.0
0.5056034482746439 1.0 0.0
0.5650862068951479 1.0 0.0
0.624568965515645 1.0 0.0
0.6840517241361357 1.0 0.0
0.7435344827566197 1.0 0.0
0.8030172413771515 1.0 0.0
0.8624999999976763 1.0 0.0
0.9219827586185091 1.0 0.0
0.9814655172393557 1.0 0.0
1.040948275860181 1.0 0.0
1.100431034481038 1.0 0.0
1.159913793101895 1.0 0.0
1.219396551722753 1.0 0.0
1.278879310343654 1.0 0.0
1.338362068964579 1.0 0.0
1.397844827585388 1.0 0.0
1.457327586206215 1.0 0.0
1.516810344826985 1.0 0.0
1.576293103447828 1.0 0.0
1.635775862068708 1.0 0.0
1.695258620689603 1.0 0.0
1.784545454545345 1.0 0.0
1.844090909090676 1.0 0.0
1.903636363635991 1.0 0.0
1.963181818181336 1.0 0.0
2.022727272726716 1.0 0.0
2.082272727272112 1.0 0.0
2.141818181817408 1.0 0.0
2.201363636362702 1.0 0.0
2.260909090908037 1.0 0.0
2.320454545453433 1.0 0.0
2.379999999998759 1.0 0.0
2.439545454544053 1.0 0.0
2.499090909089358 1.0 0.0
2.558636363634754 1.0 0.0
2.618181818180109 1.0 0.0
2.677727272725404 1.0 0.0
2.737272727270631 1.0 0.0
2.796818181815906 1.0 0.0
2.856363636361191 1.0 0.0
2.915909090906408 1.0 0.0
2.975454545451703 1.0 0.0
3.034999999997049 1.0 0.0
3.094545454542377 1.0 0.0
3.154090909087591 1.0 0.0
3.21363636363288 1.0 0.0
3.273181818178196 1.0 0.0
3.332727272723555 1.0 0.0
3.392272727268849 1.0 0.0
3.451818181814208 1.0 0.0
3.511363636359524 1.0 0.0
3.570909090904812 1.0 0.0
3.630454545450026 1.0 0.0
3.689999999995355 1.0 0.0
3.749545454540702 1.0 0.0
3.809090909085996 1.0 0.0
3.868636363631291 1.0 0.0
3.928181818176585 1.0 0.0
3.987727272721861 1.0 0.0
4.047272727267021 1.0 0.0
4.106818181812208 1.0 0.0
4.166363636357625 1.0 0.0
4.225909090903122 1.0 0.0
4.285454545448432 1.0 0.0
4.34499999999356 1.0 0.0
4.404545454538917 1.0 0.0
4.464090909084414 1.0 0.0
4.523636363629791 1.0 0.0
4.583181818174936 1.0 0.0
4.642727272720208 1.0 0.0
4.702272727265705 1.0 0.0
4.761818181811142 1.0 0.0
4.821363636356348 1.0 0.0
4.880909090901557 1.0 0.0
4.940454545446997 1.0 0.0
4.999999999992493 1.0 0.0
5.059545454538018 1.0 0.0
5.119090909083717 1.0 0.0
5.17863636362933 1.0 0.0
5.238181818174827 1.0 0.0
5.297727272720321 1.0 0.0
5.357272727265989 1.0 0.0
5.416818181811662 1.0 0.0
5.476363636357158 1.0 0.0
5.535909090902654 1.0 0.0
5.595454545448262 1.0 0.0
5.65499999999396 1.0 0.0
5.714545454539491 1.0 0.0
5.774090909085032 1.0 0.0
5.83363636363093 1.0 0.0
5.893181818176673 1.0 0.0
5.952727272722171 1.0 0.0
6.012272727267668 1.0 0.0
6.071818181813491 1.0 0.0
6.131363636359353 1.0 0.0
6.190909090904849 1.0 0.0
6.250454545450346 1.0 0.0
6.309999999996052 1.0 0.0
6.369545454541951 1.0 0.0
6.429090909087529 1.0 0.0
6.488636363633026 1.0 0.0
6.548181818178611 1.0 0.0
6.60772727272451 1.0 0.0
6.667272727270209 1.0 0.0
6.726818181815705 1.0 0.0
6.786363636361202 1.0 0.0
6.845909090907071 1.0 0.0
6.905454545452889 1.0 0.0
6.964999999998385 1.0 0.0
7.024545454543881 1.0 0.0
7.084090909089378 1.0 0.0
7.143636363634876 1.0 0.0
7.20318181818037 1.0 0.0
7.262727272725868 1.0 0.0
7.322272727271365 1.0 0.0
7.381818181816859 1.0 0.0
7.441363636362357 1.0 0.0
7.500909090907854 1.0 0.0
7.560454545453348 1.0 0.0
7.619999999998846 1.0 0.0
7.679545454544343 1.0 0.0
7.739090909089839 1.0 0.0
7.798636363635335 1.0 0.0
7.858181818180832 1.0 0.0
7.917727272726328 1.0 0.0
7.977272727271824 1.0 0.0
8.036818181817441 1.0 0.0
8.09636363636334 1.0 0.0
8.155909090909008 1.0 0.0
8.215454545454504 1.0 0.0
1.754772727272673 1.0 0.0
1.814318181818009 1.0 0.0
1.873863636363333 1.0 0.0
1.933409090908672 1.0 0.0
1.992954545454031 1.0 0.0
2.052499999999414 1.0 0.0
2.112045454544734 1.0 0.0
2.171590909090055 1.0 0.0
2.231136363635354 1.0 0.0
2.290681818180733 1.0 0.0
2.35022727272609 1.0 0.0
2.409772727271409 1.0 0.0
2.469318181816729 1.0 0.0
2.528863636362083 1.0 0.0
2.588409090907435 1.0 0.0
2.647954545452764 1.0 0.0
2.70749999999803 1.0 0.0
2.767045454543256 1.0 0.0
2.826590909088563 1.0 0.0
2.886136363633805 1.0 0.0
2.945681818179043 1.0 0.0
3.005227272724398 1.0 0.0
3.064772727269736 1.0 0.0
3.124318181814993 1.0 0.0
3.183863636360237 1.0 0.0
3.243409090905498 1.0 0.0
3.302954545450869 1.0 0.0
3.362499999996201 1.0 0.0
3.422045454541534 1.0 0.0
3.481590909086889 1.0 0.0
3.541136363632178 1.0 0.0
3.600681818177425 1.0 0.0
3.660227272722711 1.0 0.0
3.719772727268038 1.0 0.0
3.779318181813342 1.0 0.0
3.838863636358643 1.0 0.0
3.898409090903943 1.0 0.0
3.957954545449228 1.0 0.0
4.017499999994459 1.0 0.0
4.077045454539567 1.0 0.0
4.136590909084866 1.0 0.0
4.196136363630398 1.0 0.0
4.255681818175789 1.0 0.0
4.31522727272101 1.0 0.0
4.374772727266199 1.0 0.0
4.434318181811665 1.0 0.0
4.493863636357126 1.0 0.0
4.55340909090234 1.0 0.0
4.612954545447561 1.0 0.0
4.672499999992919 1.0 0.0
4.732045454538429 1.0 0.0
4.791590909083769 1.0 0.0
4.851136363628941 1.0 0.0
4.910681818174305 1.0 0.0
4.970227272719745 1.0 0.0
5.029772727265215 1.0 0.0
5.089318181810858 1.0 0.0
5.148863636356518 1.0 0.0
5.208409090902078 1.0 0.0
5.267954545447563 1.0 0.0
5.32749999999314 1.0 0.0
5.387045454538812 1.0 0.0
5.446590909084395 1.0 0.0
5.506136363629908 1.0 0.0
5.565681818175434 1.0 0.0
5.625227272721118 1.0 0.0
5.68477272726672 1.0 0.0
5.744318181812282 1.0 0.0
5.803863636357981 1.0 0.0
5.863409090903753 1.0 0.0
5.922954545449448 1.0 0.0
5.98249999999492 1.0 0.0
6.042045454540572 1.0 0.0
6.10159090908641 1.0 0.0
6.161136363632073 1.0 0.0
6.220681818177569 1.0 0.0
6.280227272723183 1.0 0.0
6.339772727268974 1.0 0.0
6.399318181814714 1.0 0.0
6.45886363636027 1.0 0.0
6.518409090905834 1.0 0.0
6.577954545451583 1.0 0.0
6.637499999997363 1.0 0.0
6.697045454542931 1.0 0.0
6.756590909088454 1.0 0.0
6.8161363636342 1.0 0.0
6.875681818179999 1.0 0.0
6.935227272725616 1.0 0.0
6.994772727271133 1.0 0.0
7.054318181816615 1.0 0.0
7.113863636362105 1.0 0.0
7.173409090907585 1.0 0.0
7.232954545453119 1.0 0.0
7.292499999998594 1.0 0.0
7.352045454544166 1.0 0.0
7.411590909089607 1.0 0.0
7.471136363635079 1.0 0.0
7.530681818180621 1.0 0.0
7.590227272726104 1.0 0.0
7.649772727271595 1.0 0.0
7.709318181817098 1.0 0.0
7.768863636362564 1.0 0.0
7.828409090908048 1.0 0.0
7.88795454545358 1.0 0.0
7.947499999999069 1.0 0.0
8.007045454544631 1.0 0.0
8.066590909090369 1.0 0.0
8.126136363636165 1.0 0.0
8.185681818181749 1.0 0.0
8.245227272727199 1.0 0.0
8.334482758620055 1.0 0.0
8.393965517240051 1.0 0.0
8.453448275859904 1.0 0.0
8.51293103448045 1.0 0.0
8.572413793100301 1.0 0.0
8.631896551720153 1.0 0.0
8.6913793103407 1.0 0.0
8.750862068961245 1.0 0.0
8.810344827581792 1.0 0.0
8.869827586202339 1.0 0.0
8.929310344822884 1.0 0.0
8.988793103443431 1.0 0.0
9.048275862063978 1.0 0.0
9.107758620684523 1.0 0.0
9.16724137930507 1.0 0.0
9.226724137925617 1.0 0.0
9.286206896546162 1.0 0.0
9.345689655167401 1.0 0.0
9.405172413788595 1.0 0.0
9.46465517240963 1.0 0.0
9.524137931030667 1.0 0.0
9.583620689651704 1.0 0.0
9.643103448272907 1.0 0.0
9.702586206894148 1.0 0.0
9.762068965515388 1.0 0.0
9.821551724136627 1.0 0.0
9.881034482757867 1.0 0.0
9.940517241378963 1.0 0.0
8.304741379310085 1.0 0.0
8.364224137930028 1.0 0.0
8.423706896549978 1.0 0.0
8.48318965517026 1.0 0.0
8.542672413790376 1.0 0.0
8.602155172410113 1.0 0.0
8.661637931030402 1.0 0.0
8.721120689651029 1.0 0.0
8.78060344827138 1.0 0.0
8.84008620689213 1.0 0.0
8.899568965512502 1.0 0.0
8.959051724133055 1.0 0.0
9.018534482753648 1.0 0.0
9.078017241374363 1.0 0.0
9.137499999994688 1.0 0.0
9.196982758615343 1.0 0.0
9.256465517235805 1.0 0.0
9.315948275856895 1.0 0.0
9.375431034477998 1.0 0.0
9.434913793099138 1.0 0.0
9.494396551720149 1.0 0.0
9.55387931034146 1.0 0.0
9.613362068962203 1.0 0.0
9.672844827583809 1.0 0.0
9.73232758620488 1.0 0.0
9.791810344826095 1.0 0.0
9.851293103447228 1.0 0.0
9.910775862068462 1.0 0.0
9.970258620689481 1.0 0.0
10.0 0.9411764705879904 0.0
10.0 0.882352941175982 0.0
10.0 0.8235294117645425 0.0
10.0 0.764705882353186 0.0
10.0 0.7058823529418295 0.0
10.0 0.6470588235304731 0.0
10.0 0.5882352941191167 0.0
10.0 0.5294117647077601 0.0
10.0 0.4705882352960771 0.0
10.0 0.4117647058840672 0.0
10.0 0.3529411764720576 0.0
10.0 0.2941176470600479 0.0
10.0 0.2352941176480381 0.0
10.0 0.1764705882360285 0.0
10.0 0.1176470588240187 0.0
10.0 0.05882352941200908 0.0
10.0 0.9705882352939621 0.0
10.0 0.9117647058820033 0.0
10.0 0.8529411764702793 0.0
10.0 0.7941176470588772 0.0
10.0 0.7352941176474532 0.0
10.0 0.6764705882361493 0.0
10.0 0.6176470588248275 0.0
10.0 0.5588235294134586 0.0
10.0 0.5000000000020175 0.0
10.0 0.4411764705900721 0.0
10.0 0.3823529411780624 0.0
10.0 0.3235294117660528 0.0
10.0 0.264705882354043 0.0
10.0 0.2058823529420333 0.0
10.0 0.1470588235300236 0.0
10.0 0.0882352941180139 0.0
10.0 0.02941176470600448 0.0
9.940119760479043 0.0 0.0
9.880239520958083 0.0 0.0
9.820359281437126 0.0 0.0
9.760479041916167 0.0 0.0
9.70059880239521 0.0 0.0
9.640718562874252 0.0 0.0
9.580838323353293 0.0 0.0
[...]
POINT_DATA 14968
VECTORS vector double
1.0 0.0 0.0
0.0 0.0 0.0
0.0 0.0 0.0
0.0 0.0 0.0
0.0 0.0 0.0
1.0 0.0 0.0
0.0 0.0 0.0
0.0 0.0 0.0
0.0 0.0 0.0
0.0 0.0 0.0
0.0 0.0 0.0
0.0 0.0 0.0
0.0 0.0 0.0
0.0 0.0 0.0
0.0 0.0 0.0
0.0 0.0 0.0
0.0 0.0 0.0
0.0 0.0 0.0
0.0 0.0 0.0
0.0 0.0 0.0
0.0 0.0 0.0
0.0 0.0 0.0
0.0 0.0 0.0
0.0 0.0 0.0
0.0 0.0 0.0
0.0 0.0 0.0
0.0 0.0 0.0
0.0 0.0 0.0
0.0 0.0 0.0
0.0 0.0 0.0
0.0 0.0 0.0
0.0 0.0 0.0
0.0 0.0 0.0
0.0 0.0 0.0
0.0 0.0 0.0
0.0 0.0 0.0
0.0 0.0 0.0
0.0 0.0 0.0
0.0 0.0 0.0
0.0 0.0 0.0
0.0 0.0 0.0
0.0 0.0 0.0
0.0 0.0 0.0
0.0 0.0 0.0
0.0 0.0 0.0
0.0 0.0 0.0
0.0 0.0 0.0
0.0 0.0 0.0
0.0 0.0 0.0
0.0 0.0 0.0
0.0 0.0 0.0
0.0 0.0 0.0
0.0 0.0 0.0
0.0 0.0 0.0
0.0 0.0 0.0
0.0 0.0 0.0
0.0 0.0 0.0
0.0 0.0 0.0
0.0 0.0 0.0
0.0 0.0 0.0
0.0 0.0 0.0
0.0 0.0 0.0
0.0 0.0 0.0
0.0 0.0 0.0
0.0 0.0 0.0
0.0 0.0 0.0
0.0 0.0 0.0
0.0 0.0 0.0
0.0 0.0 0.0
0.0 0.0 0.0
0.0 0.0 0.0
0.0 0.0 0.0
0.0 0.0 0.0
0.0 0.0 0.0
0.0 0.0 0.0
0.0 0.0 0.0
0.0 0.0 0.0
0.0 0.0 0.0
0.0 0.0 0.0
0.0 0.0 0.0
0.0 0.0 0.0
0.0 0.0 0.0
0.0 0.0 0.0
0.0 0.0 0.0
0.0 0.0 0.0
0.0 0.0 0.0
0.0 0.0 0.0
0.0 0.0 0.0
0.0 0.0 0.0
0.0 0.0 0.0
0.0 0.0 0.0
0.0 0.0 0.0
0.0 0.0 0.0
0.0 0.0 0.0
0.0 0.0 0.0
0.0 0.0 0.0
0.0 0.0 0.0
0.0 0.0 0.0
0.0 0.0 0.0
0.0 0.0 0.0
0.0 0.0 0.0
0.0 0.0 0.0
0.0 0.0 0.0
0.0 0.0 0.0
0.0 0.0 0.0
0.0 0.0 0.0
0.0 0.0 0.0
0.0 0.0 0.0
0.0 0.0 0.0
0.0 0.0 0.0
0.0 0.0 0.0
0.0 0.0 0.0
0.0 0.0 0.0
0.0 0.0 0.0
0.0 0.0 0.0
0.0 0.0 0.0
0.0 0.0 0.0
0.0 0.0 0.0
0.0 0.0 0.0
0.0 0.0 0.0
0.0 0.0 0.0
0.0 0.0 0.0
0.0 0.0 0.0
0.0 0.0 0.0
0.0 0.0 0.0
0.0 0.0 0.0
0.0 0.0 0.0
0.0 0.0 0.0
0.0 0.0 0.0
0.0 0.0 0.0
0.0 0.0 0.0
0.0 0.0 0.0
0.0 0.0 0.0
0.0 0.0 0.0
0.0 0.0 0.0
0.0 0.0 0.0
0.0 0.0 0.0
0.0 0.0 0.0
0.0 0.0 0.0
0.0 0.0 0.0
0.0 0.0 0.0
0.0 0.0 0.0
0.0 0.0 0.0
0.0 0.0 0.0
0.0 0.0 0.0
0.0 0.0 0.0
0.0 0.0 0.0
0.0 0.0 0.0
0.0 0.0 0.0
0.0 0.0 0.0
0.0 0.0 0.0
0.0 0.0 0.0
0.0 0.0 0.0
0.0 0.0 0.0
0.0 0.0 0.0
0.0 0.0 0.0
0.0 0.0 0.0
0.0 0.0 0.0
0.0 0.0 0.0
0.0 0.0 0.0
0.0 0.0 0.0
0.0 0.0 0.0
0.0 0.0 0.0
0.0 0.0 0.0
0.0 0.0 0.0
0.0 0.0 0.0
0.0 0.0 0.0
0.0 0.0 0.0
0.0 0.0 0.0
0.0 0.0 0.0
0.0 0.0 0.0
0.0 0.0 0.0
0.0 0.0 0.0
0.0 0.0 0.0
0.0 0.0 0.0
0.0 0.0 0.0
0.0 0.0 0.0
0.0 0.0 0.0
0.0 0.0 0.0
0.0 0.0 0.0
0.0 0.0 0.0
0.0 0.0 0.0
0.0 0.0 0.0
0.0 0.0 0.0
0.0 0.0 0.0
0.0 0.0 0.0
0.0 0.0 0.0
0.0 0.0 0.0
0.0 0.0 0.0
0.0 0.0 0.0
0.0 0.0 0.0
0.0 0.0 0.0
0.0 0.0 0.0
0.0 0.0 0.0
0.0 0.0 0.0
0.0 0.0 0.0
0.0 0.0 0.0
0.0 0.0 0.0
0.0 0.0 0.0
0.0 0.0 0.0
0.0 0.0 0.0
0.0 0.0 0.0
0.0 0.0 0.0
0.0 0.0 0.0
0.0 0.0 0.0
0.0 0.0 0.0
0.0 0.0 0.0
0.0 0.0 0.0
0.0 0.0 0.0
0.0 0.0 0.0
0.0 0.0 0.0
0.0 0.0 0.0
0.0 0.0 0.0
0.0 0.0 0.0
0.0 0.0 0.0
0.0 0.0 0.0
0.0 0.0 0.0
0.0 0.0 0.0
0.0 0.0 0.0
0.0 0.0 0.0
0.0 0.0 0.0
0.0 0.0 0.0
0.0 0.0 0.0
0.0 0.0 0.0
0.0 0.0 0.0
0.0 0.0 0.0
0.0 0.0 0.0
0.0 0.0 0.0
0.0 0.0 0.0
0.0 0.0 0.0
0.0 0.0 0.0
0.0 0.0 0.0
0.0 0.0 0.0
0.0 0.0 0.0
0.0 0.0 0.0
0.0 0.0 0.0
0.0 0.0 0.0
0.0 0.0 0.0
0.0 0.0 0.0
0.0 0.0 0.0
0.0 0.0 0.0
0.0 0.0 0.0
0.0 0.0 0.0
0.0 0.0 0.0
0.0 0.0 0.0
0.0 0.0 0.0
0.0 0.0 0.0
0.0 0.0 0.0
0.0 0.0 0.0
0.0 0.0 0.0
0.0 0.0 0.0
0.0 0.0 0.0
0.0 0.0 0.0
0.0 0.0 0.0
0.0 0.0 0.0
0.0 0.0 0.0
0.0 0.0 0.0
0.0 0.0 0.0
0.0 0.0 0.0
0.0 0.0 0.0
0.0 0.0 0.0
0.0 0.0 0.0
0.0 0.0 0.0
0.0 0.0 0.0
0.0 0.0 0.0
0.0 0.0 0.0
0.0 0.0 0.0
0.0 0.0 0.0
0.0 0.0 0.0
0.0 0.0 0.0
0.0 0.0 0.0
0.0 0.0 0.0
0.0 0.0 0.0
0.0 0.0 0.0
0.0 0.0 0.0
0.0 0.0 0.0
0.0 0.0 0.0
0.0 0.0 0.0
0.0 0.0 0.0
0.0 0.0 0.0
0.0 0.0 0.0
0.0 0.0 0.0
0.0 0.0 0.0
0.0 0.0 0.0
0.0 0.0 0.0
0.0 0.0 0.0
0.0 0.0 0.0
0.0 0.0 0.0
0.0 0.0 0.0
0.0 0.0 0.0
0.0 0.0 0.0
0.0 0.0 0.0
0.0 0.0 0.0
0.0 0.0 0.0
0.0 0.0 0.0
0.0 0.0 0.0
0.0 0.0 0.0
0.0 0.0 0.0
0.0 0.0 0.0
0.0 0.0 0.0
0.0 0.0 0.0
0.0 0.0 0.0
0.0 0.0 0.0
0.0 0.0 0.0
0.0 0.0 0.0
0.0 0.0 0.0
0.0 0.0 0.0
0.0 0.0 0.0
0.0 0.0 0.0
0.0 0.0 0.0
0.0 0.0 0.0
0.0 0.0 0.0
0.0 0.0 0.0
0.0 0.0 0.0
0.0 0.0 0.0
0.0 0.0 0.0
0.0 0.0 0.0
0.0 0.0 0.0
0.0 0.0 0.0
0.0 0.0 0.0
0.0 0.0 0.0
0.0 0.0 0.0
0.0 0.0 0.0
0.0 0.0 0.0
0.0 0.0 0.0
0.0 0.0 0.0
0.0 0.0 0.0
0.0 0.0 0.0
0.0 0.0 0.0
0.0 0.0 0.0
0.0 0.0 0.0
0.0 0.0 0.0
0.0 0.0 0.0
0.0 0.0 0.0
0.0 0.0 0.0
0.0 0.0 0.0
0.0 0.0 0.0
0.0 0.0 0.0
0.0 0.0 0.0
0.594237369676 8.72460164629e-05 0.0
0.957278210788 -0.000336555851468 0.0
1.11350519526 -0.000247761543953 0.0
1.15607402736 4.94076685965e-05 0.0
1.16323546526 -1.01952005678e-05 0.0
1.16005232111 -6.48854756419e-05 0.0
1.16586906157 7.99054643706e-05 0.0
1.16530061764 8.52381072965e-05 0.0
1.16404968381 -6.05240855437e-05 0.0
1.163463984 -0.000120716365981 0.0
1.16297003855 -2.6045279772e-07 0.0
1.16246336415 -8.79952759476e-05 0.0
1.15597457943 9.34723672823e-05 0.0
1.11294863266 0.000356061118761 0.0
0.960953467297 0.000791931861303 0.0
0.596851390384 -0.000181586537276 0.0
0.301148605519 0.00176857223939 0.0
0.779387214791 0.000782206774862 0.0
1.03401782107 -0.000270006542567 0.0
1.13481450247 -0.000744097302013 0.0
1.16222002015 0.000314338855807 0.0
1.16688418686 5.40367259313e-05 0.0
1.16787625869 -3.59485798914e-05 0.0
1.16922704513 5.91972389259e-05 0.0
1.16925734316 7.92896382038e-06 0.0
1.16812293896 -4.49908466514e-05 0.0
1.16914095748 -1.73355695566e-05 0.0
1.1669311612 1.5271094697e-05 0.0
1.16343916786 -0.000295395540746 0.0
1.13727985582 -0.000385531514649 0.0
1.03744313769 -0.00203716972727 0.0
0.78221992567 -0.000509447819961 0.0
0.30277686324 -0.00177706387787 0.0
0.0 0.0 0.0
0.0 0.0 0.0
0.0 0.0 0.0
0.0 0.0 0.0
0.0 0.0 0.0
0.0 0.0 0.0
0.0 0.0 0.0
0.0 0.0 0.0
0.0 0.0 0.0
0.0 0.0 0.0
0.0 0.0 0.0
0.0 0.0 0.0
0.0 0.0 0.0
0.0 0.0 0.0
0.0 0.0 0.0
0.0 0.0 0.0
0.0 0.0 0.0
0.0 0.0 0.0
0.0 0.0 0.0
0.0 0.0 0.0
0.0 0.0 0.0
0.0 0.0 0.0
0.0 0.0 0.0
0.0 0.0 0.0
0.0 0.0 0.0
0.0 0.0 0.0
0.0 0.0 0.0
0.0 0.0 0.0
0.0 0.0 0.0
0.0 0.0 0.0
0.0 0.0 0.0
0.0 0.0 0.0
0.0 0.0 0.0
0.0 0.0 0.0
0.0 0.0 0.0
0.0 0.0 0.0
0.0 0.0 0.0
0.0 0.0 0.0
0.0 0.0 0.0
0.0 0.0 0.0
0.0 0.0 0.0
0.0 0.0 0.0
0.0 0.0 0.0
0.0 0.0 0.0
0.0 0.0 0.0
0.0 0.0 0.0
0.0 0.0 0.0
0.0 0.0 0.0
0.0 0.0 0.0
0.0 0.0 0.0
0.0 0.0 0.0
0.0 0.0 0.0
0.0 0.0 0.0
0.0 0.0 0.0
0.0 0.0 0.0
0.0 0.0 0.0
0.0 0.0 0.0
0.0 0.0 0.0
0.0 0.0 0.0
0.0 0.0 0.0
0.0 0.0 0.0
0.0 0.0 0.0
0.0 0.0 0.0
0.0 0.0 0.0
0.0 0.0 0.0
0.0 0.0 0.0
0.0 0.0 0.0
0.0 0.0 0.0
0.0 0.0 0.0
0.0 0.0 0.0
0.0 0.0 0.0
0.0 0.0 0.0
0.0 0.0 0.0
0.0 0.0 0.0
0.0 0.0 0.0
0.0 0.0 0.0
0.0 0.0 0.0
0.0 0.0 0.0
0.0 0.0 0.0
0.0 0.0 0.0
0.0 0.0 0.0
0.0 0.0 0.0
0.0 0.0 0.0
0.0 0.0 0.0
0.0 0.0 0.0
0.0 0.0 0.0
0.0 0.0 0.0
0.0 0.0 0.0
0.0 0.0 0.0
0.0 0.0 0.0
0.0 0.0 0.0
0.0 0.0 0.0
0.0 0.0 0.0
0.0 0.0 0.0
0.0 0.0 0.0
0.0 0.0 0.0
0.0 0.0 0.0
0.0 0.0 0.0
0.0 0.0 0.0
0.0 0.0 0.0
0.0 0.0 0.0
0.0 0.0 0.0
0.0 0.0 0.0
0.0 0.0 0.0
0.0 0.0 0.0
0.0 0.0 0.0
0.0 0.0 0.0
0.0 0.0 0.0
0.0 0.0 0.0
0.0 0.0 0.0
0.0 0.0 0.0
0.0 0.0 0.0
0.0 0.0 0.0
0.0 0.0 0.0
0.0 0.0 0.0
0.0 0.0 0.0
0.0 0.0 0.0
0.0 0.0 0.0
0.0 0.0 0.0
0.0 0.0 0.0
0.0 0.0 0.0
0.0 0.0 0.0
0.0 0.0 0.0
0.0 0.0 0.0
0.0 0.0 0.0
0.0 0.0 0.0
0.0 0.0 0.0
0.0 0.0 0.0
0.0 0.0 0.0
0.0 0.0 0.0
0.0 0.0 0.0
0.0 0.0 0.0
0.0 0.0 0.0
0.0 0.0 0.0
0.0 0.0 0.0
0.0 0.0 0.0
0.0 0.0 0.0
0.0 0.0 0.0
0.0 0.0 0.0
0.0 0.0 0.0
0.0 0.0 0.0
0.0 0.0 0.0
0.0 0.0 0.0
0.0 0.0 0.0
0.0 0.0 0.0
0.0 0.0 0.0
0.0 0.0 0.0
0.0 0.0 0.0
0.0 0.0 0.0
0.0 0.0 0.0
0.0 0.0 0.0
0.0 0.0 0.0
0.0 0.0 0.0
0.0 0.0 0.0
0.0 0.0 0.0
0.0 0.0 0.0
0.0 0.0 0.0
0.0 0.0 0.0
0.0 0.0 0.0
0.0 0.0 0.0
0.0 0.0 0.0
0.0 0.0 0.0
0.0 0.0 0.0
0.0 0.0 0.0
0.0 0.0 0.0
0.0 0.0 0.0
0.0 0.0 0.0
0.0 0.0 0.0
0.0 0.0 0.0
0.0 0.0 0.0
0.0 0.0 0.0
0.0 0.0 0.0
0.0 0.0 0.0
0.0 0.0 0.0
0.0 0.0 0.0
0.0 0.0 0.0
0.0 0.0 0.0
0.0 0.0 0.0
0.0 0.0 0.0
0.0 0.0 0.0
0.0 0.0 0.0
0.0 0.0 0.0
0.0 0.0 0.0
0.0 0.0 0.0
0.0 0.0 0.0
0.0 0.0 0.0
0.0 0.0 0.0
0.0 0.0 0.0
0.0 0.0 0.0
0.0 0.0 0.0
0.0 0.0 0.0
0.0 0.0 0.0
0.0 0.0 0.0
0.0 0.0 0.0
0.0 0.0 0.0
0.0 0.0 0.0
0.0 0.0 0.0
0.0 0.0 0.0
0.0 0.0 0.0
0.0 0.0 0.0
0.0 0.0 0.0
0.0 0.0 0.0
0.0 0.0 0.0
0.0 0.0 0.0
0.0 0.0 0.0
0.0 0.0 0.0
0.0 0.0 0.0
0.0 0.0 0.0
0.0 0.0 0.0
0.0 0.0 0.0
0.0 0.0 0.0
0.0 0.0 0.0
0.0 0.0 0.0
0.0 0.0 0.0
0.0 0.0 0.0
0.0 0.0 0.0
0.0 0.0 0.0
0.0 0.0 0.0
0.0 0.0 0.0
0.0 0.0 0.0
0.0 0.0 0.0
0.0 0.0 0.0
0.0 0.0 0.0
0.0 0.0 0.0
0.0 0.0 0.0
0.0 0.0 0.0
0.0 0.0 0.0
0.0 0.0 0.0
0.0 0.0 0.0
0.0 0.0 0.0
0.0 0.0 0.0
0.0 0.0 0.0
0.0 0.0 0.0
0.0 0.0 0.0
0.0 0.0 0.0
0.0 0.0 0.0
0.0 0.0 0.0
0.0 0.0 0.0
0.0 0.0 0.0
0.0 0.0 0.0
0.0 0.0 0.0
0.0 0.0 0.0
0.0 0.0 0.0
0.0 0.0 0.0
0.0 0.0 0.0
0.0 0.0 0.0
0.0 0.0 0.0
0.0 0.0 0.0
0.0 0.0 0.0
0.0 0.0 0.0
0.0 0.0 0.0
0.0 0.0 0.0
0.0 0.0 0.0
0.0 0.0 0.0
0.0 0.0 0.0
0.0 0.0 0.0
0.0 0.0 0.0
0.0 0.0 0.0
0.0 0.0 0.0
0.0 0.0 0.0
0.0 0.0 0.0
0.0 0.0 0.0
0.0 0.0 0.0
0.0 0.0 0.0
0.0 0.0 0.0
0.0 0.0 0.0
0.0 0.0 0.0
0.0 0.0 0.0
0.0 0.0 0.0
0.0 0.0 0.0
0.0 0.0 0.0
0.0 0.0 0.0
0.0 0.0 0.0
0.0 0.0 0.0
0.0 0.0 0.0
0.0 0.0 0.0
0.0 0.0 0.0
0.0 0.0 0.0
0.0 0.0 0.0
0.0 0.0 0.0
0.0 0.0 0.0
0.0 0.0 0.0
0.0 0.0 0.0
0.0 0.0 0.0
0.0 0.0 0.0
0.0 0.0 0.0
0.0 0.0 0.0
0.0 0.0 0.0
0.0 0.0 0.0
0.0 0.0 0.0
0.0 0.0 0.0
0.0 0.0 0.0
0.0 0.0 0.0
0.0 0.0 0.0
0.0 0.0 0.0
0.0 0.0 0.0
0.0 0.0 0.0
0.0 0.0 0.0
0.0 0.0 0.0
0.0 0.0 0.0
0.0 0.0 0.0
0.0 0.0 0.0
0.0 0.0 0.0
0.0 0.0 0.0
0.0 0.0 0.0
0.0 0.0 0.0
0.0 0.0 0.0
0.0 0.0 0.0
0.0 0.0 0.0
0.0 0.0 0.0
0.0 0.0 0.0
0.0 0.0 0.0
0.0 0.0 0.0
0.0 0.0 0.0
0.0 0.0 0.0
0.0 0.0 0.0
0.0 0.0 0.0
0.0 0.0 0.0
0.0 0.0 0.0
0.0 0.0 0.0
0.0 0.0 0.0
0.0 0.0 0.0
0.0 0.0 0.0
0.0 0.0 0.0
0.0 0.0 0.0
0.0 0.0 0.0
0.0 0.0 0.0
0.0 0.0 0.0
0.0 0.0 0.0
0.0 0.0 0.0
0.0 0.0 0.0
0.0 0.0 0.0
0.0 0.0 0.0
1.0 0.0 0.0
1.0 0.0 0.0
1.0 0.0 0.0
1.0 0.0 0.0
1.0 0.0 0.0
1.0 0.0 0.0
1.0 0.0 0.0
1.0 0.0 0.0
1.0 0.0 0.0
1.0 0.0 0.0
1.0 0.0 0.0
1.0 0.0 0.0
1.0 0.0 0.0
1.0 0.0 0.0
1.0 0.0 0.0
1.0 0.0 0.0
1.0 0.0 0.0
1.0 0.0 0.0
1.0 0.0 0.0
1.0 0.0 0.0
1.0 0.0 0.0
1.0 0.0 0.0
1.0 0.0 0.0
1.0 0.0 0.0
1.0 0.0 0.0
1.0 0.0 0.0
1.0 0.0 0.0
1.0 0.0 0.0
1.0 0.0 0.0
1.0 0.0 0.0
1.0 0.0 0.0
1.0 0.0 0.0
1.0 0.0 0.0
1.16669035779 4.40604895382e-05 0.0
1.11515826135 0.000150892173467 0.0
1.16657133119 -0.00013186947 0.0
1.16750784089 -0.000464770336334 0.0
1.16708093352 -0.000131406270668 0.0
1.16664567973 -2.78362036729e-05 0.0
1.16767077351 0.000630385393733 0.0
1.1679555431 -7.58713459166e-05 0.0
1.16772771712 -0.000211522795228 0.0
1.167851638 6.02724022773e-05 0.0
1.16790170261 -7.1713436236e-05 0.0
1.1678870545 0.000174135582762 0.0
1.16796769143 0.000127260440107 0.0
1.16741928798 0.000429397676268 0.0
1.16777206794 1.4769869857e-05 0.0
1.1661695689 -0.00103571288607 0.0
1.16653788679 -0.000255124544625 0.0
1.16566256021 0.000617629942787 0.0
1.16727742265 -0.00117268961347 0.0
1.16853940275 -0.0100062913497 0.0
1.16714727195 0.000432476069453 0.0
1.16793232192 0.00913162544976 0.0
1.16663404163 7.46755106085e-05 0.0
1.16741745551 0.000554617540232 0.0
1.16794993591 -0.000536187884501 0.0
1.16779243841 0.000123316303175 0.0
1.16746223179 -0.000496388070718 0.0
1.16745257056 -0.00014106153035 0.0
1.16760887243 -0.000392360384498 0.0
1.16603588361 -0.000666537869969 0.0
1.16795744782 0.000144794881569 0.0
1.16758461785 -0.000408011325834 0.0
1.16773538701 -0.000336944840492 0.0
1.16815090038 -8.52080311466e-06 0.0
1.16742230593 3.73977059033e-05 0.0
1.16805248936 0.000274744841463 0.0
1.16832852508 -0.000838232236331 0.0
1.16829852216 -0.000676319134318 0.0
1.16807089762 0.00104755332731 0.0
1.16818933754 3.2068011807e-05 0.0
1.16778672985 0.000334617384335 0.0
1.16780586072 -6.0778494274e-05 0.0
1.16853355309 -6.47873851055e-05 0.0
1.16784038055 0.000427512753886 0.0
1.16861711049 -0.000105153727979 0.0
1.16735569617 0.000886559635818 0.0
1.16708813566 -0.000243292323534 0.0
1.16621660471 7.42302399476e-07 0.0
1.16756756866 -0.000246941378207 0.0
1.1656394866 0.000492425936259 0.0
1.16439340961 -0.0012000103501 0.0
1.16613245953 0.00122738064473 0.0
1.09752789361 -0.0673003216464 0.0
1.16577046379 0.000160399611087 0.0
1.16804620902 -0.000608838229696 0.0
1.08684615666 0.0626811749403 0.0
1.16000131802 -0.000227981808206 0.0
1.16289993114 6.30429136291e-05 0.0
1.15903871638 0.000357389625421 0.0
1.15794366049 0.000386922874941 0.0
1.16263873853 0.000351629932466 0.0
1.16252329536 0.000363701794593 0.0
1.16162165311 0.00120680465891 0.0
1.16317328924 -0.00144033562425 0.0
1.16172981934 0.00111435716633 0.0
1.16177535039 4.08331360798e-05 0.0
1.16128518411 1.96114658464e-05 0.0
1.16162073919 0.000815135030463 0.0
1.16207313325 -0.000265490071307 0.0
1.16153182301 0.000795372933918 0.0
1.16192398838 5.65645759964e-05 0.0
1.1616452462 0.00122550416982 0.0
1.16100234538 0.000225505558055 0.0
1.16409178314 -0.00158136506323 0.0
1.16250384768 0.000379145340521 0.0
1.16284642636 -0.000489466093271 0.0
1.1620924165 -0.000359043797809 0.0
1.16249741056 -0.000570775662258 0.0
1.16164336466 -0.00200609016012 0.0
1.16210771392 -7.49692756687e-05 0.0
1.16240653799 0.00159042324167 0.0
1.16209834141 -0.000517173210165 0.0
1.16339758026 -0.000234565775437 0.0
1.16501722974 -0.000824735523166 0.0
1.16202940624 -0.00117464672348 0.0
1.16100113613 -0.000909437564392 0.0
1.16090446998 0.000417024433907 0.0
1.1785864969 -0.0517467015842 0.0
1.16262657 0.000423152273898 0.0
1.17955127323 0.0522496395269 0.0
1.15308837594 0.00229181173035 0.0
1.16100136428 0.00115024670797 0.0
1.02946343819 -0.00274733170209 0.0
1.16715877096 -6.3430164759e-05 0.0
1.16666308462 -0.000296902083401 0.0
1.16690495292 0.000673468450767 0.0
1.16783763315 -0.000526430601022 0.0
1.16773724892 0.000170773340187 0.0
1.16723579132 -0.000780496730091 0.0
1.167760748 6.41477130371e-05 0.0
1.16730560227 0.00055056639627 0.0
1.16638218764 -0.000115890143651 0.0
1.16677636005 4.64650421378e-05 0.0
1.16723651528 -0.000102393097275 0.0
1.16645561965 0.000154453020522 0.0
1.16752110586 -0.000160863375315 0.0
1.16749729438 2.68453308326e-05 0.0
1.1675458871 -9.7010374936e-05 0.0
1.1674101538 4.18780878132e-06 0.0
1.16468166575 -0.000901035968471 0.0
1.16689095082 -0.000260067491445 0.0
1.11676740233 0.00130293613032 0.0
1.11574775889 -0.00120379257359 0.0
1.11993635786 -0.00103385039242 0.0
1.1222586285 0.00217818736739 0.0
1.12045725477 -0.00122101707384 0.0
1.12156172518 0.000405219102104 0.0
1.12084169017 -0.0010786071703 0.0
1.12154752713 0.000457379742225 0.0
1.12095562337 -0.0017999307424 0.0
1.12318572561 0.000392489731314 0.0
1.1234467234 0.00153567236425 0.0
1.12664646209 -0.000130129695306 0.0
1.12523843759 -0.00120403241727 0.0
1.11576937574 -0.00239233055798 0.0
1.11697790183 -0.000927394379578 0.0
1.11559854661 0.000950449753054 0.0
1.11699995189 -0.00167865880196 0.0
1.11447533972 0.00042550374398 0.0
1.11274340864 0.00162590546159 0.0
1.11316590735 0.00133520957682 0.0
1.1121516965 0.000433465276298 0.0
1.11607886272 -3.68003872003e-05 0.0
1.1164933709 -6.42880140459e-05 0.0
1.11361255193 -0.000381443224957 0.0
1.11260172865 0.000612113053482 0.0
1.11655143715 -0.000583845837998 0.0
1.11674945451 -0.000409534971882 0.0
1.11321940481 0.000137689692187 0.0
1.11341268019 -0.000479673528791 0.0
1.11612166793 0.000568828362039 0.0
1.11615125149 0.000289435326185 0.0
1.11360197649 -0.000155676704915 0.0
1.11336941609 0.000411650315891 0.0
1.11389796711 0.000381914572568 0.0
1.11317924702 -0.0004699851417 0.0
1.11615268266 0.00137806014102 0.0
1.11408442834 0.000550830341414 0.0
1.11289163955 -0.0012228909676 0.0
1.11366985495 -0.000281188662579 0.0
1.11177685376 -0.00120173140168 0.0
1.16792780054 -0.000252154475508 0.0
1.1526719057 -0.00537632551733 0.0
1.11233644636 0.000656186663148 0.0
1.16773823987 -8.61037208108e-05 0.0
1.16759574003 0.000320491405759 0.0
1.16739622921 -2.29415828829e-06 0.0
1.16716101336 -0.000155039401703 0.0
1.16748757474 0.000305973806346 0.0
1.16768242817 1.12435751449e-05 0.0
1.16724457439 0.000413594059808 0.0
1.16767243603 -6.32912467508e-05 0.0
1.16700300744 -0.000254548372514 0.0
1.16762411612 0.00018130779072 0.0
1.16737099542 -0.000318870819958 0.0
1.16702750743 -0.000137499143693 0.0
1.16607098861 5.91756212179e-05 0.0
1.10382613389 -0.000796207180675 0.0
1.10380332495 -0.000723823410677 0.0
1.11225959301 0.000916440294957 0.0
1.11425372438 9.15011349517e-05 0.0
1.16081021566 -0.132061982441 0.0
1.11593532181 0.00116102139247 0.0
1.10215036371 -0.000885602980192 0.0
1.11424121395 -0.0101813510257 0.0
1.10539575365 -0.000483805092529 0.0
1.10518128533 0.000700291422101 0.0
1.11043842298 0.000917044087183 0.0
1.11034570173 -3.26414417882e-05 0.0
1.11055363097 0.000680280135851 0.0
1.11012285169 -3.45332640098e-05 0.0
1.11744521751 -0.00119290914175 0.0
1.13068183392 0.127127658356 0.0
1.11135099973 0.000993297025346 0.0
1.11084175201 -5.60039447635e-05 0.0
1.10617435457 0.000150794868894 0.0
1.11073876443 -0.00015132176062 0.0
1.10045835316 -0.000605556706157 0.0
1.10955394696 2.83234220975e-05 0.0
1.09903357626 -0.00327229374857 0.0
1.16626936314 0.000241135601687 0.0
1.16699147305 -0.000760441978467 0.0
1.09465547027 -0.000958381149473 0.0
1.09423315911 6.67234744223e-05 0.0
1.16782222303 -0.000333353162692 0.0
1.16737176509 0.0010824007798 0.0
1.09996785339 0.000976320363424 0.0
1.11002544103 0.00922350942435 0.0
1.166437862 -0.000676903935072 0.0
1.16678981937 -0.000266435722089 0.0
1.16738780998 -0.0001003486602 0.0
1.16754649347 -0.000488578110195 0.0
1.16750329474 -9.64360511382e-05 0.0
1.1674299046 -0.000159194156189 0.0
1.16711861083 0.000831459676595 0.0
1.16761199487 -7.63652455123e-05 0.0
1.1677763318 -2.68800913469e-05 0.0
1.09704590199 -0.00154435600855 0.0
1.0830753002 0.0030385728677 0.0
1.08174084128 1.56755272587e-05 0.0
1.09245338156 6.75023940172e-05 0.0
1.08586533867 0.00102196829797 0.0
1.18030923886 -0.0785569513504 0.0
1.08951444488 -0.000748013408275 0.0
1.17735201766 0.0860863413117 0.0
1.16602248984 -0.000855250279426 0.0
1.16528866497 -0.000234966315949 0.0
1.16618177871 0.000391282171531 0.0
1.16598509794 0.000648874049375 0.0
1.16785129627 -6.75501963707e-05 0.0
1.16767941673 0.000270495210829 0.0
1.16656399976 0.000109836927715 0.0
1.16768600177 0.000188718950062 0.0
1.16788983931 0.000304346374254 0.0
1.16617678169 -0.000585747649423 0.0
1.16786787153 -0.0021754381904 0.0
1.16733607397 -8.04142620581e-05 0.0
1.16770332928 1.88810779583e-05 0.0
1.16804312979 0.00067612767439 0.0
1.16800039253 2.80218618022e-05 0.0
1.16683601434 0.00041487021021 0.0
1.16717536219 0.000235048938654 0.0
1.16654904007 0.000625551537145 0.0
1.16584576421 7.14482463115e-05 0.0
1.16574672744 0.000515690154612 0.0
1.16699700182 0.000321567040137 0.0
1.16622990044 -0.000265152317918 0.0
1.16704816443 -0.000208126151527 0.0
1.1667240674 0.000149599381056 0.0
1.1669480332 -0.000119681875164 0.0
1.1667274155 0.000125193380432 0.0
1.16476369388 -0.00129558534011 0.0
1.16580981264 0.000286847092518 0.0
1.15217236697 0.0219858034473 0.0
1.16701155623 0.000153367064866 0.0
1.16443186569 0.000210010203387 0.0
1.16590582979 0.00133240015072 0.0
1.16710665197 0.000105330141126 0.0
1.07580117372 -0.0214364610184 0.0
1.02221878698 -0.0296638639698 0.0
1.16782663589 0.000244103536371 0.0
1.01978761495 0.0300791919753 0.0
1.16719258232 -0.000414543726198 0.0
1.16745552016 -3.54335079007e-05 0.0
1.11422770516 0.0474274847805 0.0
1.16576665422 -0.000912387436972 0.0
1.16537965031 -0.000935936398795 0.0
1.16687216453 -0.000374868033638 0.0
1.16640499084 -0.00118033232161 0.0
1.1657772784 -0.000442401222314 0.0
1.16473965717 -2.36443536021e-05 0.0
1.16632071288 0.00048575952869 0.0
1.16541272883 -6.46898158837e-05 0.0
1.16729675649 -0.000181256076068 0.0
1.16660757377 0.000517479232319 0.0
1.16704524959 3.41713106016e-05 0.0
1.16647676917 -0.000147573391615 0.0
1.16686935278 0.00017297924765 0.0
1.16705125033 -0.000147176716969 0.0
1.16687329905 -9.82788128375e-05 0.0
1.16700760697 8.52468149852e-05 0.0
1.16617537825 -0.00036844943848 0.0
1.16695512179 0.000349962179838 0.0
1.16697596479 3.13505336868e-06 0.0
1.16582105709 0.000172186549683 0.0
1.16411303201 0.000171924317152 0.0
1.1657294112 0.000259839406746 0.0
1.16547828355 -0.000759084646097 0.0
1.14361084109 -0.0246693258504 0.0
1.16860259544 -9.88620037438e-05 0.0
1.01479763722 -0.000233946182234 0.0
1.01588835242 0.00175048580993 0.0
1.16714140896 0.00045730435844 0.0
1.12728562966 -0.0561527030723 0.0
0.983889084999 -0.00109857694365 0.0
0.98638811983 -0.00079928953175 0.0