# vtk DataFile Version 2.0
2D Simulation Python
ASCII
DATASET UNSTRUCTURED_GRID
FIELD FieldData 1
NODES 1 2 int
11134 7299

POINTS 11134 double
0.0 1.0 0.0
1.725 1.0 0.0
8.275 1.0 0.0
10.0 1.0 0.0
10.0 0.0 0.0
0.0 0.0 0.0
0.05948275862057954 1.0 0.0
0.1189655172411507 1.0 0.0
0.1784482758617532 1.0 0.0
0.2379310344823185 1.0 0.0
0.2974137931028384 1.0 0.0
0.3568965517233564 1.0 0.0
0.4163793103438745 1.0 0.0
0.475862068964385 1.0 0.0
0.535344827584889 1.0 0.0
0.5948275862053855 1.0 0.0
0.654310344825882 1.0 0.0
0.7137931034463786 1.0 0.0
0.7732758620668752 1.0 0.0
0.8327586206874149 1.0 0.0
0.8922413793081027 1.0 0.0
0.9517241379289384 1.0 0.0
1.011206896549752 1.0 0.0
1.070689655170612 1.0 0.0
1.130172413791474 1.0 0.0
1.189655172412335 1.0 0.0
1.249137931033183 1.0 0.0
1.308620689654105 1.0 0.0
1.368103448274985 1.0 0.0
1.427586206895818 1.0 0.0
1.487068965516628 1.0 0.0
1.546551724137449 1.0 0.0
1.606034482758285 1.0 0.0
1.665517241379139 1.0 0.0
1.784545454545345 1.0 0.0
1.844090909090676 1.0 0.0
1.903636363635991 1.0 0.0
1.963181818181336 1.0 0.0
2.022727272726716 1.0 0.0
2.082272727272112 1.0 0.0
2.141818181817408 1.0 0.0
2.201363636362702 1.0 0.0
2.260909090908037 1.0 0.0
2.320454545453433 1.0 0.0
2.379999999998759 1.0 0.0
2.439545454544053 1.0 0.0
2.499090909089358 1.0 0.0
2.558636363634754 1.0 0.0
2.618181818180109 1.0 0.0
2.677727272725404 1.0 0.0
2.737272727270631 1.0 0.0
2.796818181815906 1.0 0.0
2.856363636361191 1.0 0.0
2.915909090906408 1.0 0.0
2.975454545451703 1.0 0.0
3.034999999997049 1.0 0.0
3.094545454542377 1.0 0.0
3.154090909087591 1.0 0.0
3.21363636363288 1.0 0.0
3.273181818178196 1.0 0.0
3.332727272723555 1.0 0.0
3.392272727268849 1.0 0.0
3.451818181814208 1.0 0.0
3.511363636359524 1.0 0.0
3.570909090904812 1.0 0.0
3.630454545450026 1.0 0.0
3.689999999995355 1.0 0.0
3.749545454540702 1.0 0.0
3.809090909085996 1.0 0.0
3.868636363631291 1.0 0.0
3.928181818176585 1.0 0.0
3.987727272721861 1.0 0.0
4.047272727267021 1.0 0.0
4.106818181812208 1.0 0.0
4.166363636357625 1.0 0.0
4.225909090903122 1.0 0.0
4.285454545448432 1.0 0.0
4.34499999999356 1.0 0.0
4.404545454538917 1.0 0.0
4.464090909084414 1.0 0.0
4.523636363629791 1.0 0.0
4.583181818174936 1.0 0.0
4.642727272720208 1.0 0.0
4.702272727265705 1.0 0.0
4.761818181811142 1.0 0.0
4.821363636356348 1.0 0.0
4.880909090901557 1.0 0.0
4.940454545446997 1.0 0.0
4.999999999992493 1.0 0.0
5.059545454538018 1.0 0.0
5.119090909083717 1.0 0.0
5.17863636362933 1.0 0.0
5.238181818174827 1.0 0.0
5.297727272720321 1.0 0.0
5.357272727265989 1.0 0.0
5.416818181811662 1.0 0.0
5.476363636357158 1.0 0.0
5.535909090902654 1.0 0.0
5.595454545448262 1.0 0.0
5.65499999999396 1.0 0.0
5.714545454539491 1.0 0.0
5.774090909085032 1.0 0.0
5.83363636363093 1.0 0.0
5.893181818176673 1.0 0.0
5.952727272722171 1.0 0.0
6.012272727267668 1.0 0.0
6.071818181813491 1.0 0.0
6.131363636359353 1.0 0.0
6.190909090904849 1.0 0.0
6.250454545450346 1.0 0.0
6.309999999996052 1.0 0.0
6.369545454541951 1.0 0.0
6.429090909087529 1.0 0.0
6.488636363633026 1.0 0.0
6.548181818178611 1.0 0.0
6.60772727272451 1.0 0.0
6.667272727270209 1.0 0.0
6.726818181815705 1.0 0.0
6.786363636361202 1.0 0.0
6.845909090907071 1.0 0.0
6.905454545452889 1.0 0.0
6.964999999998385 1.0 0.0
7.024545454543881 1.0 0.0
7.084090909089378 1.0 0.0
7.143636363634876 1.0 0.0
7.20318181818037 1.0 0.0
7.262727272725868 1.0 0.0
7.322272727271365 1.0 0.0
7.381818181816859 1.0 0.0
7.441363636362357 1.0 0.0
7.500909090907854 1.0 0.0
7.560454545453348 1.0 0.0
7.619999999998846 1.0 0.0
7.679545454544343 1.0 0.0
7.739090909089839 1.0 0.0
7.798636363635335 1.0 0.0
7.858181818180832 1.0 0.0
7.917727272726328 1.0 0.0
7.977272727271824 1.0 0.0
8.036818181817441 1.0 0.0
8.09636363636334 1.0 0.0
8.155909090909008 1.0 0.0
8.215454545454504 1.0 0.0
8.334482758620055 1.0 0.0
8.393965517240051 1.0 0.0
8.453448275859904 1.0 0.0
8.51293103448045 1.0 0.0
8.572413793100301 1.0 0.0
8.631896551720153 1.0 0.0
8.6913793103407 1.0 0.0
8.750862068961245 1.0 0.0
8.810344827581792 1.0 0.0
8.869827586202339 1.0 0.0
8.929310344822884 1.0 0.0
8.988793103443431 1.0 0.0
9.048275862063978 1.0 0.0
9.107758620684523 1.0 0.0
9.16724137930507 1.0 0.0
9.226724137925617 1.0 0.0
9.286206896546162 1.0 0.0
9.345689655167401 1.0 0.0
9.405172413788595 1.0 0.0
9.46465517240963 1.0 0.0
9.524137931030667 1.0 0.0
9.583620689651704 1.0 0.0
9.643103448272907 1.0 0.0
9.702586206894148 1.0 0.0
9.762068965515388 1.0 0.0
9.821551724136627 1.0 0.0
9.881034482757867 1.0 0.0
9.940517241378963 1.0 0.0
10.0 0.9411764705879904 0.0
10.0 0.882352941175982 0.0
10.0 0.8235294117645425 0.0
10.0 0.764705882353186 0.0
10.0 0.7058823529418295 0.0
10.0 0.6470588235304731 0.0
10.0 0.5882352941191167 0.0
10.0 0.5294117647077601 0.0
10.0 0.4705882352960771 0.0
10.0 0.4117647058840672 0.0
10.0 0.3529411764720576 0.0
10.0 0.2941176470600479 0.0
10.0 0.2352941176480381 0.0
10.0 0.1764705882360285 0.0
10.0 0.1176470588240187 0.0
10.0 0.05882352941200908 0.0
9.940119760479043 0.0 0.0
9.880239520958083 0.0 0.0
9.820359281437126 0.0 0.0
9.760479041916167 0.0 0.0
9.70059880239521 0.0 0.0
9.640718562874252 0.0 0.0
9.580838323353293 0.0 0.0
9.520958083832335 0.0 0.0
9.461077844311376 0.0 0.0
9.401197604790418 0.0 0.0
9.34131736526946 0.0 0.0
9.281437125748502 0.0 0.0
9.221556886227543 0.0 0.0
9.161676646706585 0.0 0.0
9.101796407185628 0.0 0.0
9.041916167664668 0.0 0.0
8.982035928143711 0.0 0.0
8.922155688622752 0.0 0.0
8.862275449101794 0.0 0.0
8.802395209580837 0.0 0.0
8.742514970059878 0.0 0.0
8.68263473053892 0.0 0.0
8.622754491017961 0.0 0.0
8.562874251497004 0.0 0.0
8.502994011976044 0.0 0.0
8.443113772455087 0.0 0.0
8.38323353293413 0.0 0.0
8.32335329341317 0.0 0.0
8.263473053892213 0.0 0.0
8.203592814371254 0.0 0.0
8.143712574850296 0.0 0.0
8.083832335329337 0.0 0.0
8.02395209580838 0.0 0.0
7.964071856287422 0.0 0.0
7.904191616766464 0.0 0.0
7.844311377245505 0.0 0.0
7.784431137724548 0.0 0.0
7.72455089820359 0.0 0.0
7.664670658682631 0.0 0.0
7.604790419161674 0.0 0.0
7.544910179640715 0.0 0.0
7.485029940119757 0.0 0.0
7.425149700598799 0.0 0.0
7.36526946107784 0.0 0.0
7.305389221556883 0.0 0.0
7.245508982035925 0.0 0.0
7.185628742514966 0.0 0.0
7.125748502994009 0.0 0.0
7.065868263473051 0.0 0.0
7.005988023952092 0.0 0.0
6.946107784431135 0.0 0.0
6.886227544910177 0.0 0.0
6.826347305389219 0.0 0.0
6.766467065868261 0.0 0.0
6.706586826347303 0.0 0.0
6.646706586826344 0.0 0.0
6.586826347305387 0.0 0.0
6.526946107784428 0.0 0.0
6.46706586826347 0.0 0.0
6.407185628742512 0.0 0.0
6.347305389221554 0.0 0.0
6.287425149700596 0.0 0.0
6.227544910179638 0.0 0.0
6.16766467065868 0.0 0.0
6.107784431137722 0.0 0.0
6.047904191616764 0.0 0.0
5.988023952095805 0.0 0.0
5.928143712574848 0.0 0.0
5.868263473053889 0.0 0.0
5.808383233532932 0.0 0.0
5.748502994011973 0.0 0.0
5.688622754491016 0.0 0.0
5.628742514970057 0.0 0.0
5.568862275449099 0.0 0.0
5.508982035928141 0.0 0.0
5.449101796407183 0.0 0.0
5.389221556886225 0.0 0.0
5.329341317365267 0.0 0.0
5.269461077844309 0.0 0.0
5.209580838323351 0.0 0.0
5.149700598802393 0.0 0.0
5.089820359281434 0.0 0.0
5.029940119760477 0.0 0.0
4.970059880239518 0.0 0.0
4.91017964071856 0.0 0.0
4.850299401197602 0.0 0.0
4.790419161676644 0.0 0.0
4.730538922155686 0.0 0.0
4.670658682634729 0.0 0.0
4.610778443113769 0.0 0.0
4.550898203592812 0.0 0.0
4.491017964071854 0.0 0.0
4.431137724550896 0.0 0.0
4.371257485029938 0.0 0.0
4.31137724550898 0.0 0.0
4.251497005988022 0.0 0.0
4.191616766467064 0.0 0.0
4.131736526946106 0.0 0.0
4.071856287425147 0.0 0.0
4.01197604790419 0.0 0.0
3.952095808383231 0.0 0.0
3.892215568862274 0.0 0.0
3.832335329341316 0.0 0.0
3.772455089820358 0.0 0.0
3.712574850299399 0.0 0.0
3.652694610778441 0.0 0.0
3.592814371257483 0.0 0.0
3.532934131736526 0.0 0.0
3.473053892215567 0.0 0.0
3.41317365269461 0.0 0.0
3.353293413173652 0.0 0.0
3.293413173652693 0.0 0.0
3.233532934131736 0.0 0.0
3.173652694610777 0.0 0.0
3.113772455089819 0.0 0.0
3.053892215568861 0.0 0.0
2.994011976047903 0.0 0.0
2.934131736526945 0.0 0.0
2.874251497005988 0.0 0.0
2.814371257485028 0.0 0.0
2.754491017964071 0.0 0.0
2.694610778443113 0.0 0.0
2.634730538922155 0.0 0.0
2.574850299401197 0.0 0.0
2.514970059880238 0.0 0.0
2.455089820359281 0.0 0.0
2.395209580838323 0.0 0.0
2.335329341317365 0.0 0.0
2.275449101796406 0.0 0.0
2.215568862275448 0.0 0.0
2.15568862275449 0.0 0.0
2.095808383233532 0.0 0.0
2.035928143712574 0.0 0.0
1.976047904191615 0.0 0.0
1.916167664670658 0.0 0.0
1.8562874251497 0.0 0.0
1.796407185628741 0.0 0.0
1.736526946107784 0.0 0.0
1.676646706586826 0.0 0.0
1.616766467065867 0.0 0.0
1.55688622754491 0.0 0.0
1.49700598802395 0.0 0.0
1.437125748502995 0.0 0.0
1.377245508982035 0.0 0.0
1.317365269461078 0.0 0.0
1.257485029940119 0.0 0.0
1.19760479041916 0.0 0.0
1.137724550898204 0.0 0.0
1.077844311377245 0.0 0.0
1.017964071856287 0.0 0.0
0.958083832335328 0.0 0.0
0.8982035928143723 0.0 0.0
0.8383233532934131 0.0 0.0
0.7784431137724539 0.0 0.0
0.7185628742514965 0.0 0.0
0.658682634730539 0.0 0.0
0.5988023952095816 0.0 0.0
0.5389221556886223 0.0 0.0
0.4790419161676631 0.0 0.0
0.4191616766467074 0.0 0.0
0.3592814371257482 0.0 0.0
0.2994011976047908 0.0 0.0
0.2395209580838316 0.0 0.0
0.1796407185628741 0.0 0.0
0.1197604790419167 0.0 0.0
0.05988023952095922 0.0 0.0
0.0 0.0588235294116454 0.0
0.0 0.1176470588233168 0.0
0.0 0.1764705882349203 0.0
0.0 0.2352941176465135 0.0
0.0 0.2941176470581066 0.0
0.0 0.3529411764696997 0.0
0.0 0.4117647058812929 0.0
0.0 0.4705882352928861 0.0
0.0 0.5294117647046425 0.0
0.0 0.5882352941165623 0.0
0.0 0.6470588235284821 0.0
0.0 0.7058823529404019 0.0
0.0 0.7647058823523216 0.0
0.0 0.8235294117642414 0.0
0.0 0.8823529411761613 0.0
0.0 0.941176470588081 0.0
9.496671432578891 0.5021202775764965 0.0
0.503328567417594 0.502120277573701 0.0
8.960949321310713 0.5028360638807292 0.0
1.039050678683441 0.5028360638815292 0.0
8.421726050444478 0.5013914029598455 0.0
1.578273949553219 0.5013914029599852 0.0
2.110012838156869 0.501717680037117 0.0
[...]
POINT_DATA 11134
VECTORS vector double
1.0 0.0 0.0
0.0 0.0 0.0
0.0 0.0 0.0
0.0 0.0 0.0
0.0 0.0 0.0
1.0 0.0 0.0
0.0 0.0 0.0
0.0 0.0 0.0
0.0 0.0 0.0
0.0 0.0 0.0
0.0 0.0 0.0
0.0 0.0 0.0
0.0 0.0 0.0
0.0 0.0 0.0
0.0 0.0 0.0
0.0 0.0 0.0
0.0 0.0 0.0
0.0 0.0 0.0
0.0 0.0 0.0
0.0 0.0 0.0
0.0 0.0 0.0
0.0 0.0 0.0
0.0 0.0 0.0
0.0 0.0 0.0
0.0 0.0 0.0
0.0 0.0 0.0
0.0 0.0 0.0
0.0 0.0 0.0
0.0 0.0 0.0
0.0 0.0 0.0
0.0 0.0 0.0
0.0 0.0 0.0
0.0 0.0 0.0
0.0 0.0 0.0
0.0 0.0 0.0
0.0 0.0 0.0
0.0 0.0 0.0
0.0 0.0 0.0
0.0 0.0 0.0
0.0 0.0 0.0
0.0 0.0 0.0
0.0 0.0 0.0
0.0 0.0 0.0
0.0 0.0 0.0
0.0 0.0 0.0
0.0 0.0 0.0
0.0 0.0 0.0
0.0 0.0 0.0
0.0 0.0 0.0
0.0 0.0 0.0
0.0 0.0 0.0
0.0 0.0 0.0
0.0 0.0 0.0
0.0 0.0 0.0
0.0 0.0 0.0
0.0 0.0 0.0
0.0 0.0 0.0
0.0 0.0 0.0
0.0 0.0 0.0
0.0 0.0 0.0
0.0 0.0 0.0
0.0 0.0 0.0
0.0 0.0 0.0
0.0 0.0 0.0
0.0 0.0 0.0
0.0 0.0 0.0
0.0 0.0 0.0
0.0 0.0 0.0
0.0 0.0 0.0
0.0 0.0 0.0
0.0 0.0 0.0
0.0 0.0 0.0
0.0 0.0 0.0
0.0 0.0 0.0
0.0 0.0 0.0
0.0 0.0 0.0
0.0 0.0 0.0
0.0 0.0 0.0
0.0 0.0 0.0
0.0 0.0 0.0
0.0 0.0 0.0
0.0 0.0 0.0
0.0 0.0 0.0
0.0 0.0 0.0
0.0 0.0 0.0
0.0 0.0 0.0
0.0 0.0 0.0
0.0 0.0 0.0
0.0 0.0 0.0
0.0 0.0 0.0
0.0 0.0 0.0
0.0 0.0 0.0
0.0 0.0 0.0
0.0 0.0 0.0
0.0 0.0 0.0
0.0 0.0 0.0
0.0 0.0 0.0
0.0 0.0 0.0
0.0 0.0 0.0
0.0 0.0 0.0
0.0 0.0 0.0
0.0 0.0 0.0
0.0 0.0 0.0
0.0 0.0 0.0
0.0 0.0 0.0
0.0 0.0 0.0
0.0 0.0 0.0
0.0 0.0 0.0
0.0 0.0 0.0
0.0 0.0 0.0
0.0 0.0 0.0
0.0 0.0 0.0
0.0 0.0 0.0
0.0 0.0 0.0
0.0 0.0 0.0
0.0 0.0 0.0
0.0 0.0 0.0
0.0 0.0 0.0
0.0 0.0 0.0
0.0 0.0 0.0
0.0 0.0 0.0
0.0 0.0 0.0
0.0 0.0 0.0
0.0 0.0 0.0
0.0 0.0 0.0
0.0 0.0 0.0
0.0 0.0 0.0
0.0 0.0 0.0
0.0 0.0 0.0
0.0 0.0 0.0
0.0 0.0 0.0
0.0 0.0 0.0
0.0 0.0 0.0
0.0 0.0 0.0
0.0 0.0 0.0
0.0 0.0 0.0
0.0 0.0 0.0
0.0 0.0 0.0
0.0 0.0 0.0
0.0 0.0 0.0
0.0 0.0 0.0
0.0 0.0 0.0
0.0 0.0 0.0
0.0 0.0 0.0
0.0 0.0 0.0
0.0 0.0 0.0
0.0 0.0 0.0
0.0 0.0 0.0
0.0 0.0 0.0
0.0 0.0 0.0
0.0 0.0 0.0
0.0 0.0 0.0
0.0 0.0 0.0
0.0 0.0 0.0
0.0 0.0 0.0
0.0 0.0 0.0
0.0 0.0 0.0
0.0 0.0 0.0
0.0 0.0 0.0
0.0 0.0 0.0
0.0 0.0 0.0
0.0 0.0 0.0
0.0 0.0 0.0
0.0 0.0 0.0
0.0 0.0 0.0
0.0 0.0 0.0
0.0 0.0 0.0
0.0 0.0 0.0
0.0 0.0 0.0
0.0 0.0 0.0
0.0 0.0 0.0
0.406456925664 0.0664603549776 0.0
0.729066031707 0.0460828844028 0.0
0.95821888882 0.0299085960182 0.0
1.13655794175 0.0148766121742 0.0
1.2541634835 0.00905045974684 0.0
1.29773722908 0.0073805509374 0.0
1.32560195372 0.00272534147887 0.0
1.33873641827 0.000591623617407 0.0
1.33791341442 -0.000783391136015 0.0
1.32664731502 -0.00341069262619 0.0
1.29987197553 -0.00642318550537 0.0
1.24352032618 -0.0152975625461 0.0
1.14888108583 -0.0190833889116 0.0
0.988393830717 -0.0282589261942 0.0
0.756628258514 -0.0277755796504 0.0
0.402397507227 -0.0636702755573 0.0
0.0 0.0 0.0
0.0 0.0 0.0
0.0 0.0 0.0
0.0 0.0 0.0
0.0 0.0 0.0
0.0 0.0 0.0
0.0 0.0 0.0
0.0 0.0 0.0
0.0 0.0 0.0
0.0 0.0 0.0
0.0 0.0 0.0
0.0 0.0 0.0
0.0 0.0 0.0
0.0 0.0 0.0
0.0 0.0 0.0
0.0 0.0 0.0
0.0 0.0 0.0
0.0 0.0 0.0
0.0 0.0 0.0
0.0 0.0 0.0
0.0 0.0 0.0
0.0 0.0 0.0
0.0 0.0 0.0
0.0 0.0 0.0
0.0 0.0 0.0
0.0 0.0 0.0
0.0 0.0 0.0
0.0 0.0 0.0
0.0 0.0 0.0
0.0 0.0 0.0
0.0 0.0 0.0
0.0 0.0 0.0
0.0 0.0 0.0
0.0 0.0 0.0
0.0 0.0 0.0
0.0 0.0 0.0
0.0 0.0 0.0
0.0 0.0 0.0
0.0 0.0 0.0
0.0 0.0 0.0
0.0 0.0 0.0
0.0 0.0 0.0
0.0 0.0 0.0
0.0 0.0 0.0
0.0 0.0 0.0
0.0 0.0 0.0
0.0 0.0 0.0
0.0 0.0 0.0
0.0 0.0 0.0
0.0 0.0 0.0
0.0 0.0 0.0
0.0 0.0 0.0
0.0 0.0 0.0
0.0 0.0 0.0
0.0 0.0 0.0
0.0 0.0 0.0
0.0 0.0 0.0
0.0 0.0 0.0
0.0 0.0 0.0
0.0 0.0 0.0
0.0 0.0 0.0
0.0 0.0 0.0
0.0 0.0 0.0
0.0 0.0 0.0
0.0 0.0 0.0
0.0 0.0 0.0
0.0 0.0 0.0
0.0 0.0 0.0
0.0 0.0 0.0
0.0 0.0 0.0
0.0 0.0 0.0
0.0 0.0 0.0
0.0 0.0 0.0
0.0 0.0 0.0
0.0 0.0 0.0
0.0 0.0 0.0
0.0 0.0 0.0
0.0 0.0 0.0
0.0 0.0 0.0
0.0 0.0 0.0
0.0 0.0 0.0
0.0 0.0 0.0
0.0 0.0 0.0
0.0 0.0 0.0
0.0 0.0 0.0
0.0 0.0 0.0
0.0 0.0 0.0
0.0 0.0 0.0
0.0 0.0 0.0
0.0 0.0 0.0
0.0 0.0 0.0
0.0 0.0 0.0
0.0 0.0 0.0
0.0 0.0 0.0
0.0 0.0 0.0
0.0 0.0 0.0
0.0 0.0 0.0
0.0 0.0 0.0
0.0 0.0 0.0
0.0 0.0 0.0
0.0 0.0 0.0
0.0 0.0 0.0
0.0 0.0 0.0
0.0 0.0 0.0
0.0 0.0 0.0
0.0 0.0 0.0
0.0 0.0 0.0
0.0 0.0 0.0
0.0 0.0 0.0
0.0 0.0 0.0
0.0 0.0 0.0
0.0 0.0 0.0
0.0 0.0 0.0
0.0 0.0 0.0
0.0 0.0 0.0
0.0 0.0 0.0
0.0 0.0 0.0
0.0 0.0 0.0
0.0 0.0 0.0
0.0 0.0 0.0
0.0 0.0 0.0
0.0 0.0 0.0
0.0 0.0 0.0
0.0 0.0 0.0
0.0 0.0 0.0
0.0 0.0 0.0
0.0 0.0 0.0
0.0 0.0 0.0
0.0 0.0 0.0
0.0 0.0 0.0
0.0 0.0 0.0
0.0 0.0 0.0
0.0 0.0 0.0
0.0 0.0 0.0
0.0 0.0 0.0
0.0 0.0 0.0
0.0 0.0 0.0
0.0 0.0 0.0
0.0 0.0 0.0
0.0 0.0 0.0
0.0 0.0 0.0
0.0 0.0 0.0
0.0 0.0 0.0
0.0 0.0 0.0
0.0 0.0 0.0
0.0 0.0 0.0
0.0 0.0 0.0
0.0 0.0 0.0
0.0 0.0 0.0
0.0 0.0 0.0
0.0 0.0 0.0
0.0 0.0 0.0
0.0 0.0 0.0
0.0 0.0 0.0
0.0 0.0 0.0
0.0 0.0 0.0
0.0 0.0 0.0
0.0 0.0 0.0
0.0 0.0 0.0
0.0 0.0 0.0
0.0 0.0 0.0
0.0 0.0 0.0
0.0 0.0 0.0
0.0 0.0 0.0
0.0 0.0 0.0
0.0 0.0 0.0
1.0 0.0 0.0
1.0 0.0 0.0
1.0 0.0 0.0
1.0 0.0 0.0
1.0 0.0 0.0
1.0 0.0 0.0
1.0 0.0 0.0
1.0 0.0 0.0
1.0 0.0 0.0
1.0 0.0 0.0
1.0 0.0 0.0
1.0 0.0 0.0
1.0 0.0 0.0
1.0 0.0 0.0
1.0 0.0 0.0
1.0 0.0 0.0
1.34134992225 0.000906183953879 0.0
1.14142805602 -0.000915174998046 0.0
1.33911757187 -0.000176702510613 0.0
1.29268134198 -0.00115106036484 0.0
1.33877276454 -0.000977601031198 0.0
1.339677435 -0.000359612399674 0.0
1.34025020124 -0.00121784467277 0.0
1.34073237999 -0.00152117337153 0.0
1.34091891005 0.00194414657283 0.0
1.34073965244 -0.000456675010392 0.0
1.33919347157 0.000281353206694 0.0
1.34021484763 0.000867452723754 0.0
1.33939737627 -0.000859352476856 0.0
1.33825522293 0.00222580265563 0.0
1.33972266108 -0.00053409851559 0.0
1.33712193415 0.000855614487968 0.0
1.33738710019 -0.0010599711091 0.0
1.33690669537 -0.00186665102784 0.0
1.27827722118 0.000150273034674 0.0
1.25132769516 -0.0448024944669 0.0
1.27887065361 -0.000300871083604 0.0
1.24873036154 0.0470925940506 0.0
1.27582508112 -0.00104319608279 0.0
1.27979179485 -0.00725909111621 0.0
1.2757960151 4.05239490914e-05 0.0
1.27566293019 0.00053886227654 0.0
1.27621060706 -0.000159348493829 0.0
1.27562477271 0.00184583742186 0.0
1.27762177879 -0.000908815311531 0.0
1.27724441537 0.00122561871643 0.0
1.27315983272 0.000548841362017 0.0
1.2752580903 0.00365517265103 0.0
1.27723845175 0.000637120226048 0.0
1.27648839833 0.000284560642523 0.0
1.27627673448 0.000959958779554 0.0
1.27636601585 0.000846336043736 0.0
1.26941781075 0.00134955173947 0.0
1.27174944666 0.0013533658321 0.0
1.27417464459 0.000430601984775 0.0
1.27350214065 0.00048115551321 0.0
1.27367169446 -0.000531479287108 0.0
1.27495845515 0.00256358693751 0.0
1.27532754532 0.0018503214472 0.0
1.27277839516 -0.00230026443529 0.0
1.28056628464 -0.0015655492033 0.0
1.28177331565 -0.00200351332074 0.0
1.27683255422 0.00664431955331 0.0
1.27396007045 0.00137502661784 0.0
1.27060633826 -0.00170437151608 0.0
1.26957007808 -0.00166622276503 0.0
1.24595060764 -0.00225301430263 0.0
1.24679443552 -0.000518340056398 0.0
1.11324580225 -0.0875648822525 0.0
1.24157515318 0.0018328024732 0.0
1.25785254241 -0.0011681803524 0.0
1.10489416434 0.0776348595412 0.0
1.17872652319 -0.000916030944354 0.0
1.2013558236 -0.025092093676 0.0
1.16006482328 -0.00226358576258 0.0
1.15988778069 -0.000128596703631 0.0
1.17479024027 -0.00469812828914 0.0
1.17645501442 -0.00447151838716 0.0
1.17884441224 0.00603162579809 0.0
1.16563105415 0.0031529921162 0.0
1.17858309501 -0.0024051324228 0.0
1.18141471951 -0.00219897846077 0.0
1.17677971807 0.00358956871662 0.0
1.18035197276 -0.00328626547085 0.0
1.1799489804 0.000892466469806 0.0
1.1797301116 -0.00250233984912 0.0
1.17973016895 4.51102134743e-05 0.0
1.17819242546 -0.00188913171981 0.0
1.17928805846 0.000765437389394 0.0
1.16987318353 -0.00380609851896 0.0
1.17652085042 -0.00426726605357 0.0
1.17552369598 0.00544172722883 0.0
1.17819214658 -0.00296242157392 0.0
1.17385550168 0.00430933580665 0.0
1.16894112833 0.00325827069734 0.0
1.17015360574 -0.00128797903354 0.0
1.18153256878 -0.0014537429063 0.0
1.17767152775 0.000179415454218 0.0
1.19056583545 0.00156222311303 0.0
1.20967717489 0.0253233839936 0.0
1.18467057061 -0.00160559361715 0.0
1.18593258539 -0.000170410282862 0.0
1.17858151165 0.00249893074567 0.0
1.2154325552 -0.0789869975808 0.0
1.16283699376 0.00247159974879 0.0
1.21207036436 0.0806558966522 0.0
1.12126037479 0.0011512929239 0.0
1.16958544205 -0.0011744437321 0.0
1.0362540781 -0.00495635508749 0.0
1.34103957368 -2.82429090469e-05 0.0
1.33861283125 -0.00114339041016 0.0
1.33748005636 -0.0013370773911 0.0
1.338924125 -0.000322004453001 0.0
1.34021229334 -0.000403251376519 0.0
1.33682194752 0.00170017626672 0.0
1.33973845792 -0.000775726590331 0.0
1.3392889903 0.00175586684633 0.0
1.33885786896 -0.000402482672487 0.0
1.33401947166 -0.00048881262926 0.0
1.33985190337 -0.00134882817403 0.0
1.34010049817 -0.000289609753347 0.0
1.34009545933 0.00179013397852 0.0
1.34105064405 0.000771473675318 0.0
1.34186480633 0.0011665542099 0.0
1.34101471325 -0.00102083995165 0.0
1.24880730122 -1.3237589005e-05 0.0
1.33973828728 0.000967589390555 0.0
0.991582129811 -0.00227994666536 0.0
0.999322486522 0.0104993510493 0.0
0.996632767736 -0.00302680299397 0.0
0.999858241516 0.00427807357875 0.0
0.996804289489 -0.00355019458014 0.0
0.997445856538 0.00409774782782 0.0
0.997347992122 -0.00297463205089 0.0
0.998016337366 0.00281193902681 0.0
1.0012527673 -0.00225863150054 0.0
1.00206395335 -0.0029108721871 0.0
1.00294565533 0.00153534869461 0.0
0.995823843772 0.000937120766851 0.0
0.996774315315 0.0011261821505 0.0
0.991592386016 0.00297799525874 0.0
1.04615077419 -0.031049201838 0.0
0.982547146892 -0.000399674806636 0.0
0.982750565542 0.00144139935577 0.0
0.972676153414 0.00143016120423 0.0
0.973889933388 -0.00249748471246 0.0
0.989939943227 -0.00816011838272 0.0
0.978562969973 0.00115019451349 0.0
0.979114609117 0.00187838943368 0.0
0.986019590295 0.000374949571348 0.0
0.981714796756 0.000682385403254 0.0
0.986647865138 -0.0011007553386 0.0
0.982836752442 0.000688091710774 0.0
0.984769231721 0.00185545323297 0.0
0.98024226492 0.00176622111929 0.0
0.983149258497 0.00069611796099 0.0
0.983020065014 -0.000787812083764 0.0
0.984113185841 0.00193961896704 0.0
0.97786726263 0.000420481610418 0.0
0.980065806895 -0.0004755928659 0.0
0.983807854965 -0.000736347526815 0.0
0.982770001516 0.00086134519615 0.0
0.98205263352 -0.000238219643402 0.0
0.98223301125 -0.000451680701384 0.0
0.982592198665 -0.00144744568572 0.0
0.984100001863 0.00245451252195 0.0
0.983038925639 -0.000658322862019 0.0
1.33956134222 0.00117275655939 0.0
1.19803998749 -0.00953716064671 0.0
0.976681335242 -0.00103877545622 0.0
1.33955171641 -0.00160733403944 0.0
1.34062611492 4.93485668356e-05 0.0
1.3397356576 0.000165578655527 0.0
1.33939722171 0.00274283253213 0.0
1.33822877631 0.00097605782498 0.0
1.33833701854 -0.000336605612189 0.0
1.33853047505 -0.000810174999746 0.0
1.33987562284 -0.00161325630728 0.0
1.33590558473 0.00211402585339 0.0
1.33889194433 -0.000332002910324 0.0
1.33845645925 -9.42806794845e-05 0.0
1.31974089114 -0.00378115290545 0.0
1.33767225156 -0.000473253019429 0.0
0.941205448349 0.004569989841 0.0
0.944201051035 -0.000804839347423 0.0
0.962372738383 0.00431838757895 0.0
1.01839792407 0.0247549619539 0.0
1.12966932101 -0.142863612415 0.0
0.983734548076 0.00191988106934 0.0
0.965902334276 0.00924805214119 0.0
1.06524168466 -0.0516125870161 0.0
0.963622753003 -0.00600862570359 0.0
0.962783298801 0.00350062132534 0.0
0.970213708499 -0.000930515306394 0.0
0.974894769481 2.85960375325e-05 0.0
0.969386961684 -0.00331353031977 0.0
0.972996940512 0.00388685600495 0.0
0.98469828475 -0.0027339571635 0.0
1.13296542978 0.142708234205 0.0
0.973471224091 -0.00382028428283 0.0
0.973294174484 0.00345161840433 0.0
0.964702174488 -0.000506397693339 0.0
0.977074580356 0.00396699498915 0.0
0.955275504484 0.00514474849139 0.0
0.977674693944 0.00388263211578 0.0
0.951258721669 -0.00467470125774 0.0
1.30207044429 -0.000876516982374 0.0
1.2954085822 0.0172619024802 0.0
0.9451034592 0.002657459726 0.0
0.950942471638 -0.0042586552481 0.0
1.30801431194 -0.00241433776508 0.0
1.30881235768 0.000140352350906 0.0
0.949506138654 0.00319457092073 0.0
1.05242418859 0.0430180495432 0.0
1.30046905191 0.000513298913387 0.0
1.30286098981 0.00143191532021 0.0
1.30659939506 -0.0011295976144 0.0
1.30873780259 0.00168298081469 0.0
1.30697323996 0.000701813205898 0.0
1.30737217657 0.000995153927127 0.0
1.30709534229 0.00190717511681 0.0
1.30683235642 -0.000346972337701 0.0
1.30808724224 0.000138623317429 0.0
0.932639577364 0.00254154105472 0.0
0.905706868391 0.00223763035925 0.0
0.915433184686 -0.000807138490513 0.0
0.943115978458 0.000296225037842 0.0
0.922176708156 0.00503966955924 0.0
1.1459972027 -0.104024393612 0.0
0.92640602363 0.00164473355689 0.0
1.14904580249 0.0997670388136 0.0
1.30946898791 -0.000255943012634 0.0
1.30912754224 -0.0020388437661 0.0
1.31636386281 -0.000881084271621 0.0
1.31572817653 -0.00113665750098 0.0
1.31208383377 -0.000467090918529 0.0
1.31194100637 -0.00037772620645 0.0
1.31155513849 0.00316109682389 0.0
1.31170906709 -0.000294670601632 0.0
1.31163492026 0.00145236314647 0.0
1.30793094166 0.000143504017839 0.0
1.27940311656 -0.0280312744816 0.0
1.31344127537 0.00218562722041 0.0
1.31185789811 -7.34347879524e-05 0.0
1.31265953825 0.000351876017734 0.0
1.31106873506 -0.00176423655201 0.0
1.30704377375 -0.000374807568825 0.0
1.30704857885 -0.0011034505728 0.0
1.30664683528 0.00145826626764 0.0
1.3056269124 0.000328682477982 0.0
1.30714241446 -0.00475893491731 0.0
1.30471433573 0.000521351013349 0.0
1.30658581838 -0.000924473864267 0.0
1.30630900245 0.00114918200647 0.0
1.30844032466 0.000756706353344 0.0
1.30694892463 0.00167775752165 0.0
1.30880005272 -0.000441626591062 0.0
1.30782628006 0.00131016736384 0.0
1.30742313413 -0.00131795126303 0.0
1.20040590045 0.0412259772215 0.0
1.31734899413 0.00220873638741 0.0
1.30631050482 -0.000829271454559 0.0
1.30867589689 -0.00238705655447 0.0
1.33498519037 0.000631959997538 0.0
1.09494653015 -0.025020882891 0.0
1.02640650175 -0.0348515410488 0.0
1.30918030863 -2.22794903964e-05 0.0
1.0239358019 0.0344722519822 0.0
1.30450540568 -0.00085406993355 0.0
1.30376951018 -0.000276881300571 0.0
1.14306989999 0.056543016316 0.0
1.31674580924 -0.00117446703935 0.0
1.31692836134 0.000620175240486 0.0
1.30930403136 0.00142836504626 0.0
1.30825479834 0.000591363357086 0.0
1.31727131801 -0.00157325502674 0.0
1.31940624993 -0.000342018628451 0.0
1.28129204122 0.0229866332857 0.0
1.31842193731 0.000740088614156 0.0
1.28776647224 -0.00319159788593 0.0
1.28738985499 8.16897507227e-05 0.0
1.28753696281 -0.00192900699963 0.0
1.28615769845 0.00428674843869 0.0
1.28675447072 -0.00131624240061 0.0
1.28715939899 0.000532351741208 0.0
1.28464201023 0.00051444970788 0.0
1.28735759946 0.000364980532865 0.0
1.28714551385 0.0004321714472 0.0
1.28717181135 -0.00301157830625 0.0
1.28850023181 -0.000131474744214 0.0
1.28141707054 -0.0156396857892 0.0
1.27680408274 -0.00179829160832 0.0
1.33657319657 -0.00158456372095 0.0
1.33792246698 -0.000125420370441 0.0
1.18297418968 -0.0350789867243 0.0
1.32477886454 0.000980560421683 0.0
0.790349727757 0.00496633407461 0.0
0.790610631512 -0.00255498948985 0.0
1.27929036513 0.00170737358592 0.0
1.1582364346 -0.0701557909144 0.0
0.777970435195 0.00702227380407 0.0
0.762322822445 0.000257804829486 0.0
0.738266746276 0.00104852611699 0.0
0.733457020805 0.00117475968625 0.0
0.736084325726 0.00257155870815 0.0
0.733074595887 0.0031399124774 0.0
0.733138725703 0.00118878336515 0.0
0.730839175967 0.00273041045851 0.0
0.734708168995 0.00146518343665 0.0
0.705867161846 0.00461459151266 0.0
0.703039457772 -0.00108749183988 0.0
0.777764946581 -0.000972209418209 0.0
0.781767059072 0.00116033101402 0.0
0.796359424088 -0.00128940340713 0.0
0.826052094117 -0.0156226286837 0.0
0.777910914041 0.00647589751819 0.0
0.782544003754 -0.00335534866123 0.0
0.722050635417 -0.00709918062557 0.0
0.719926096099 0.00185875129507 0.0
0.792438716639 -0.00337127255594 0.0
0.796995001236 -0.00215618512951 0.0
0.800734492882 0.000160692173904 0.0
0.806070528407 -0.00338270075956 0.0
0.807179590436 -0.0024146247159 0.0
0.806299806517 -0.00224498697877 0.0
0.805853088958 -0.00283000588999 0.0
0.80592521872 -0.00196201685463 0.0
0.805463826375 -0.00261830321212 0.0
0.794857143255 -0.000247315321745 0.0
0.788229737323 -0.000135797254026 0.0
1.32948186602 0.000232465202147 0.0
1.07573487923 0.0317365941312 0.0
0.711791464808 -0.00199204740988 0.0
0.861086872544 -0.0303557377437 0.0
0.741837837453 0.00150355116674 0.0
0.897353327904 0.0404152990332 0.0
1.31074364927 -0.000643020352738 0.0
1.3114059628 -0.00314391509273 0.0
1.3112239743 -0.000711022519877 0.0
1.2948981368 -0.0206010202718 0.0
1.23920162439 -0.000611335503182 0.0
1.23271082688 -0.0594791983711 0.0
0.729877537981 0.00266295196526 0.0
1.31206006236 0.00192083081802 0.0
1.31353911069 -0.000443875827811 0.0
1.31164220385 -0.000267951899472 0.0
1.31278013503 0.00036838225573 0.0
1.31216578403 -0.00150243549261 0.0
1.31048319539 0.00142428175735 0.0
1.31190926043 -0.000763123254509 0.0
0.746296390536 0.000150366127615 0.0
0.715232027863 0.00467418567037 0.0
1.07813001744 -0.121996187137 0.0
0.713143884824 -0.00464598066604 0.0
1.07972568791 0.120152215546 0.0
0.703401891399 -0.000524822353692 0.0
0.70536068109 0.000580283665275 0.0
0.690891184609 0.0104956364615 0.0
0.687865337896 -0.00821664604285 0.0
0.733769928981 0.00811586583625 0.0
0.740124322006 -0.00567520654442 0.0
0.69375228895 -0.00830826653606 0.0
0.693825028375 0.0114696664519 0.0
0.693548368846 -0.00836657231355 0.0
0.694850011032 0.0104325500258 0.0
0.693433603922 0.0107140835406 0.0
0.684866060679 -0.00639757627481 0.0
0.686928063676 0.00308218190072 0.0
0.684723029968 0.00657016565382 0.0
0.691029829792 -0.00872363188428 0.0
0.682793948219 0.00811182859187 0.0
0.686629310393 -0.00958811578406 0.0
0.685105692159 0.00834827632683 0.0
0.686756753191 -0.0100011258449 0.0
0.694518172877 -0.00664701200443 0.0
1.33594918011 -0.000299497584868 0.0
1.3333732556 -0.000407376907034 0.0
1.32368126108 0.00505804592884 0.0
1.33417469185 0.0005617777154 0.0
1.33397626804 0.00215745084021 0.0
1.33348416596 0.000102790167463 0.0
1.33353046468 0.000990352272587 0.0
1.33461697278 0.00273269476722 0.0
1.33460870507 -2.57839224875e-05 0.0
1.33476087189 -0.00208389460336 0.0
1.33466041404 -0.000606654579944 0.0
1.33539770007 0.00116111705551 0.0
1.33422154819 -0.00180981150363 0.0
1.22636672387 0.0138825381159 0.0
1.33735419287 0.00135228124167 0.0
1.24229386741 0.00135518308849 0.0
1.24874937309 0.0372715997447 0.0
1.2375481087 -0.000566166392947 0.0
1.23907666621 -0.00222463192467 0.0
1.24079084221 0.00135230061148 0.0
1.23740756425 -0.0013946051651 0.0
1.32238925208 -0.00129053325165 0.0
1.32420264902 -0.000685656685913 0.0
0.617617013474 -0.000749168302809 0.0
0.62700496444 -0.0029348632731 0.0
0.698239106703 -4.01533324776e-05 0.0
0.663852488115 0.00269011256489 0.0
0.631751244107 0.00392684608839 0.0
0.632837328128 -0.00270574459112 0.0
0.61982616229 0.00242223309238 0.0
0.623018680497 -0.00149432411446 0.0
0.619201339082 0.00118977470567 0.0
0.622734567805 -0.000640549989779 0.0
0.620907932864 0.00121104896345 0.0
0.620719957501 -0.000520915599472 0.0
0.614634839555 0.00211165922635 0.0
0.611891393244 -0.00174524931878 0.0
0.611872517662 0.00199419866894 0.0
1.22842156603 0.000259123984063 0.0
1.22200210435 -0.0011204471112 0.0
0.690819214048 -0.00841433633192 0.0
0.691933972464 0.0102283140516 0.0
1.01168118469 -0.00664760311969 0.0
1.33981111902 -8.12932171441e-05 0.0
1.32284914002 9.35857902856e-05 0.0
1.32436915236 0.00122346173257 0.0
0.636113240843 -0.00978455485121 0.0
1.32282522394 0.0017375692549 0.0
1.32282943145 -0.000490481030707 0.0
1.32223290657 0.00313808875584 0.0
1.32278484326 -0.00125786584195 0.0
1.32278025717 -0.000968887855732 0.0
0.642487467111 -0.0062488486568 0.0
0.637585034592 0.00377434227675 0.0
0.640341590194 -0.00528323300229 0.0
0.639291695482 0.0032759482655 0.0
0.648397305749 0.00383457143778 0.0
0.674031161601 0.00457686012054 0.0
0.690543678448 0.000496825887166 0.0
0.692716249332 -0.0017440911448 0.0
0.69427151799 0.00245082622483 0.0
0.766374200268 -0.0185886183477 0.0
0.677249643849 -0.000202985982382 0.0