# vtk DataFile Version 2.0
2D Simulation Python
ASCII
DATASET UNSTRUCTURED_GRID
FIELD FieldData 1
NODES 1 2 int
14968 7299

POINTS 14968 double
0.0 1.0 0.0
1.725 1.0 0.0
8.275 1.0 0.0
10.0 1.0 0.0
10.0 0.0 0.0
0.0 0.0 0.0
0.05948275862057954 1.0 0.0
0.1189655172411507 1.0 0.0
0.1784482758617532 1.0 0.0
0.2379310344823185 1.0 0.0
0.2974137931028384 1.0 0.0
0.3568965517233564 1.0 0.0
0.4163793103438745 1.0 0.0
0.475862068964385 1.0 0.0
0.535344827584889 1.0 0.0
0.5948275862053855 1.0 0.0
0.654310344825882 1.0 0.0
0.7137931034463786 1.0 0.0
0.7732758620668752 1.0 0.0
0.8327586206874149 1.0 0.0
0.8922413793081027 1.0 0.0
0.9517241379289384 1.0 0.0
1.011206896549752 1.0 0.0
1.070689655170612 1.0 0.0
1.130172413791474 1.0 0.0
1.189655172412335 1.0 0.0
1.249137931033183 1.0 0.0
1.308620689654105 1.0 0.0
1.368103448274985 1.0 0.0
1.427586206895818 1.0 0.0
1.487068965516628 1.0 0.0
1.546551724137449 1.0 0.0
1.606034482758285 1.0 0.0
1.665517241379139 1.0 0.0
0.02974137931029072 1.0 0.0
0.08922413793086324 1.0 0.0
0.1487068965514534 1.0 0.0
0.208189655172049 1.0 0.0
0.2676724137925698 1.0 0.0
0.3271551724130939 1.0 0.0
0.3866379310336222 1.0 0.0
0.4461206896541293 1.0 0.0
0.5056034482746439 1.0 0.0
0.5650862068951479 1.0 0.0
0.624568965515645 1.0 0.0
0.6840517241361357 1.0 0.0
0.7435344827566197 1.0 0.0
0.8030172413771515 1.0 0.0
0.8624999999976763 1.0 0.0
0.9219827586185091 1.0 0.0
0.9814655172393557 1.0 0.0
1.040948275860181 1.0 0.0
1.100431034481038 1.0 0.0
1.159913793101895 1.0 0.0
1.219396551722753 1.0 0.0
1.278879310343654 1.0 0.0
1.338362068964579 1.0 0.0
1.397844827585388 1.0 0.0
1.457327586206215 1.0 0.0
1.516810344826985 1.0 0.0
1.576293103447828 1.0 0.0
1.635775862068708 1.0 0.0
1.695258620689603 1.0 0.0
1.784545454545345 1.0 0.0
1.844090909090676 1.0 0.0
1.903636363635991 1.0 0.0
1.963181818181336 1.0 0.0
2.022727272726716 1.0 0.0
2.082272727272112 1.0 0.0
2.141818181817408 1.0 0.0
2.201363636362702 1.0 0.0
2.260909090908037 1.0 0.0
2.320454545453433 1.0 0.0
2.379999999998759 1.0 0.0
2.439545454544053 1.0 0.0
2.499090909089358 1.0 0.0
2.558636363634754 1.0 0.0
2.618181818180109 1.0 0.0
2.677727272725404 1.0 0.0
2.737272727270631 1.0 0.0
2.796818181815906 1.0 0.0
2.856363636361191 1.0 0.0
2.915909090906408 1.0 0.0
2.975454545451703 1.0 0.0
3.034999999997049 1.0 0.0
3.094545454542377 1.0 0.0
3.154090909087591 1.0 0.0
3.21363636363288 1.0 0.0
3.273181818178196 1.0 0.0
3.332727272723555 1.0 0.0
3.392272727268849 1.0 0.0
3.451818181814208 1.0 0.0
3.511363636359524 1.0 0.0
3.570909090904812 1.0 0.0
3.630454545450026 1.0 0.0
3.689999999995355 1.0 0.0
3.749545454540702 1.0 0.0
3.809090909085996 1.0 0.0
3.868636363631291 1.0 0.0
3.928181818176585 1.0 0.0
3.987727272721861 1.0 0.0
4.047272727267021 1.0 0.0
4.106818181812208 1.0 0.0
4.166363636357625 1.0 0.0
4.225909090903122 1.0 0.0
4.285454545448432 1.0 0.0
4.34499999999356 1.0 0.0
4.404545454538917 1.0 0.0
4.464090909084414 1.0 0.0
4.523636363629791 1.0 0.0
4.583181818174936 1.0 0.0
4.642727272720208 1.0 0.0
4.702272727265705 1.0 0.0
4.761818181811142 1.0 0.0
4.821363636356348 1.0 0.0
4.880909090901557 1.0 0.0
4.940454545446997 1.0 0.0
4.999999999992493 1.0 0.0
5.059545454538018 1.0 0.0
5.119090909083717 1.0 0.0
5.17863636362933 1.0 0.0
5.238181818174827 1.0 0.0
5.297727272720321 1.0 0.0
5.357272727265989 1.0 0.0
5.416818181811662 1.0 0.0
5.476363636357158 1.0 0.0
5.535909090902654 1.0 0.0
5.595454545448262 1.0 0.0
5.65499999999396 1.0 0.0
5.714545454539491 1.0 0.0
5.774090909085032 1.0 0.0
5.83363636363093 1.0 0.0
5.893181818176673 1.0 0.0
5.952727272722171 1.0 0.0
6.012272727267668 1.0 0.0
6.071818181813491 1.0 0.0
6.131363636359353 1.0 0.0
6.190909090904849 1.0 0.0
6.250454545450346 1.0 0.0
6.309999999996052 1.0 0.0
6.369545454541951 1.0 0.0
6.429090909087529 1.0 0.0
6.488636363633026 1.0 0.0
6.548181818178611 1.0 0.0
6.60772727272451 1.0 0.0
6.667272727270209 1.0 0.0
6.726818181815705 1.0 0.0
6.786363636361202 1.0 0.0
6.845909090907071 1.0 0.0
6.905454545452889 1.0 0.0
6.964999999998385 1.0 0.0
7.024545454543881 1.0 0.0
7.084090909089378 1.0 0.0
7.143636363634876 1.0 0.0
7.20318181818037 1.0 0.0
7.262727272725868 1.0 0.0
7.322272727271365 1.0 0.0
7.381818181816859 1.0 0.0
7.441363636362357 1.0 0.0
7.500909090907854 1.0 0.0
7.560454545453348 1.0 0.0
7.619999999998846 1.0 0.0
7.679545454544343 1.0 0.0
7.739090909089839 1.0 0.0
7.798636363635335 1.0 0.0
7.858181818180832 1.0 0.0
7.917727272726328 1.0 0.0
7.977272727271824 1.0 0.0
8.036818181817441 1.0 0.0
8.09636363636334 1.0 0.0
8.155909090909008 1.0 0.0
8.215454545454504 1.0 0.0
1.754772727272673 1.0 0.0
1.814318181818009 1.0 0.0
1.873863636363333 1.0 0.0
1.933409090908672 1.0 0.0
1.992954545454031 1.0 0.0
2.052499999999414 1.0 0.0
2.112045454544734 1.0 0.0
2.171590909090055 1.0 0.0
2.231136363635354 1.0 0.0
2.290681818180733 1.0 0.0
2.35022727272609 1.0 0.0
2.409772727271409 1.0 0.0
2.469318181816729 1.0 0.0
2.528863636362083 1.0 0.0
2.588409090907435 1.0 0.0
2.647954545452764 1.0 0.0
2.70749999999803 1.0 0.0
2.767045454543256 1.0 0.0
2.826590909088563 1.0 0.0
2.886136363633805 1.0 0.0
2.945681818179043 1.0 0.0
3.005227272724398 1.0 0.0
3.064772727269736 1.0 0.0
3.124318181814993 1.0 0.0
3.183863636360237 1.0 0.0
3.243409090905498 1.0 0.0
3.302954545450869 1.0 0.0
3.362499999996201 1.0 0.0
3.422045454541534 1.0 0.0
3.481590909086889 1.0 0.0
3.541136363632178 1.0 0.0
3.600681818177425 1.0 0.0
3.660227272722711 1.0 0.0
3.719772727268038 1.0 0.0
3.779318181813342 1.0 0.0
3.838863636358643 1.0 0.0
3.898409090903943 1.0 0.0
3.957954545449228 1.0 0.0
4.017499999994459 1.0 0.0
4.077045454539567 1.0 0.0
4.136590909084866 1.0 0.0
4.196136363630398 1.0 0.0
4.255681818175789 1.0 0.0
4.31522727272101 1.0 0.0
4.374772727266199 1.0 0.0
4.434318181811665 1.0 0.0
4.493863636357126 1.0 0.0
4.55340909090234 1.0 0.0
4.612954545447561 1.0 0.0
4.672499999992919 1.0 0.0
4.732045454538429 1.0 0.0
4.791590909083769 1.0 0.0
4.851136363628941 1.0 0.0
4.910681818174305 1.0 0.0
4.970227272719745 1.0 0.0
5.029772727265215 1.0 0.0
5.089318181810858 1.0 0.0
5.148863636356518 1.0 0.0
5.208409090902078 1.0 0.0
5.267954545447563 1.0 0.0
5.32749999999314 1.0 0.0
5.387045454538812 1.0 0.0
5.446590909084395 1.0 0.0
5.506136363629908 1.0 0.0
5.565681818175434 1.0 0.0
5.625227272721118 1.0 0.0
5.68477272726672 1.0 0.0
5.744318181812282 1.0 0.0
5.803863636357981 1.0 0.0
5.863409090903753 1.0 0.0
5.922954545449448 1.0 0.0
5.98249999999492 1.0 0.0
6.042045454540572 1.0 0.0
6.10159090908641 1.0 0.0
6.161136363632073 1.0 0.0
6.220681818177569 1.0 0.0
6.280227272723183 1.0 0.0
6.339772727268974 1.0 0.0
6.399318181814714 1.0 0.0
6.45886363636027 1.0 0.0
6.518409090905834 1.0 0.0
6.577954545451583 1.0 0.0
6.637499999997363 1.0 0.0
6.697045454542931 1.0 0.0
6.756590909088454 1.0 0.0
6.8161363636342 1.0 0.0
6.875681818179999 1.0 0.0
6.935227272725616 1.0 0.0
6.994772727271133 1.0 0.0
7.054318181816615 1.0 0.0
7.113863636362105 1.0 0.0
7.173409090907585 1.0 0.0
7.232954545453119 1.0 0.0
7.292499999998594 1.0 0.0
7.352045454544166 1.0 0.0
7.411590909089607 1.0 0.0
7.471136363635079 1.0 0.0
7.530681818180621 1.0 0.0
7.590227272726104 1.0 0.0
7.649772727271595 1.0 0.0
7.709318181817098 1.0 0.0
7.768863636362564 1.0 0.0
7.828409090908048 1.0 0.0
7.88795454545358 1.0 0.0
7.947499999999069 1.0 0.0
8.007045454544631 1.0 0.0
8.066590909090369 1.0 0.0
8.126136363636165 1.0 0.0
8.185681818181749 1.0 0.0
8.245227272727199 1.0 0.0
8.334482758620055 1.0 0.0
8.393965517240051 1.0 0.0
8.453448275859904 1.0 0.0
8.51293103448045 1.0 0.0
8.572413793100301 1.0 0.0
8.631896551720153 1.0 0.0
8.6913793103407 1.0 0.0
8.750862068961245 1.0 0.0
8.810344827581792 1.0 0.0
8.869827586202339 1.0 0.0
8.929310344822884 1.0 0.0
8.988793103443431 1.0 0.0
9.048275862063978 1.0 0.0
9.107758620684523 1.0 0.0
9.16724137930507 1.0 0.0
9.226724137925617 1.0 0.0
9.286206896546162 1.0 0.0
9.345689655167401 1.0 0.0
9.405172413788595 1.0 0.0
9.46465517240963 1.0 0.0
9.524137931030667 1.0 0.0
9.583620689651704 1.0 0.0
9.643103448272907 1.0 0.0
9.702586206894148 1.0 0.0
9.762068965515388 1.0 0.0
9.821551724136627 1.0 0.0
9.881034482757867 1.0 0.0
9.940517241378963 1.0 0.0
8.304741379310085 1.0 0.0
8.364224137930028 1.0 0.0
8.423706896549978 1.0 0.0
8.48318965517026 1.0 0.0
8.542672413790376 1.0 0.0
8.602155172410113 1.0 0.0
8.661637931030402 1.0 0.0
8.721120689651029 1.0 0.0
8.78060344827138 1.0 0.0
8.84008620689213 1.0 0.0
8.899568965512502 1.0 0.0
8.959051724133055 1.0 0.0
9.018534482753648 1.0 0.0
9.078017241374363 1.0 0.0
9.137499999994688 1.0 0.0
9.196982758615343 1.0 0.0
9.256465517235805 1.0 0.0
9.315948275856895 1.0 0.0
9.375431034477998 1.0 0.0
9.434913793099138 1.0 0.0
9.494396551720149 1.0 0.0
9.55387931034146 1.0 0.0
9.613362068962203 1.0 0.0
9.672844827583809 1.0 0.0
9.73232758620488 1.0 0.0
9.791810344826095 1.0 0.0
9.851293103447228 1.0 0.0
9.910775862068462 1.0 0.0
9.970258620689481 1.0 0.0
10.0 0.9411764705879904 0.0
10.0 0.882352941175982 0.0
10.0 0.8235294117645425 0.0
10.0 0.764705882353186 0.0
10.0 0.7058823529418295 0.0
10.0 0.6470588235304731 0.0
10.0 0.5882352941191167 0.0
10.0 0.5294117647077601 0.0
10.0 0.4705882352960771 0.0
10.0 0.4117647058840672 0.0
10.0 0.3529411764720576 0.0
10.0 0.2941176470600479 0.0
10.0 0.2352941176480381 0.0
10.0 0.1764705882360285 0.0
10.0 0.1176470588240187 0.0
10.0 0.05882352941200908 0.0
10.0 0.9705882352939621 0.0
10.0 0.9117647058820033 0.0
10.0 0.8529411764702793 0.0
10.0 0.7941176470588772 0.0
10.0 0.7352941176474532 0.0
10.0 0.6764705882361493 0.0
10.0 0.6176470588248275 0.0
10.0 0.5588235294134586 0.0
10.0 0.5000000000020175 0.0
10.0 0.4411764705900721 0.0
10.0 0.3823529411780624 0.0
10.0 0.3235294117660528 0.0
10.0 0.264705882354043 0.0
10.0 0.2058823529420333 0.0
10.0 0.1470588235300236 0.0
10.0 0.0882352941180139 0.0
10.0 0.02941176470600448 0.0
9.940119760479043 0.0 0.0
9.880239520958083 0.0 0.0
9.820359281437126 0.0 0.0
9.760479041916167 0.0 0.0
9.70059880239521 0.0 0.0
9.640718562874252 0.0 0.0
9.580838323353293 0.0 0.0
[...]
POINT_DATA 14968
VECTORS vector double
0.0 0.0 0.0
0.0 0.0 0.0
0.0 0.0 0.0
0.0 0.0 0.0
-1.8399792663 0.0 0.0
2.0 0.0 0.0
0.0 0.0 0.0
0.0 0.0 0.0
0.0 0.0 0.0
0.0 0.0 0.0
0.0 0.0 0.0
0.0 0.0 0.0
0.0 0.0 0.0
0.0 0.0 0.0
0.0 0.0 0.0
0.0 0.0 0.0
0.0 0.0 0.0
0.0 0.0 0.0
0.0 0.0 0.0
0.0 0.0 0.0
0.0 0.0 0.0
0.0 0.0 0.0
0.0 0.0 0.0
0.0 0.0 0.0
0.0 0.0 0.0
0.0 0.0 0.0
0.0 0.0 0.0
0.0 0.0 0.0
0.0 0.0 0.0
0.0 0.0 0.0
0.0 0.0 0.0
0.0 0.0 0.0
0.0 0.0 0.0
0.0 0.0 0.0
0.0 0.0 0.0
0.0 0.0 0.0
0.0 0.0 0.0
0.0 0.0 0.0
0.0 0.0 0.0
0.0 0.0 0.0
0.0 0.0 0.0
0.0 0.0 0.0
0.0 0.0 0.0
0.0 0.0 0.0
0.0 0.0 0.0
0.0 0.0 0.0
0.0 0.0 0.0
0.0 0.0 0.0
0.0 0.0 0.0
0.0 0.0 0.0
0.0 0.0 0.0
0.0 0.0 0.0
0.0 0.0 0.0
0.0 0.0 0.0
0.0 0.0 0.0
0.0 0.0 0.0
0.0 0.0 0.0
0.0 0.0 0.0
0.0 0.0 0.0
0.0 0.0 0.0
0.0 0.0 0.0
0.0 0.0 0.0
0.0 0.0 0.0
0.0 0.0 0.0
0.0 0.0 0.0
0.0 0.0 0.0
0.0 0.0 0.0
0.0 0.0 0.0
0.0 0.0 0.0
0.0 0.0 0.0
0.0 0.0 0.0
0.0 0.0 0.0
0.0 0.0 0.0
0.0 0.0 0.0
0.0 0.0 0.0
0.0 0.0 0.0
0.0 0.0 0.0
0.0 0.0 0.0
0.0 0.0 0.0
0.0 0.0 0.0
0.0 0.0 0.0
0.0 0.0 0.0
0.0 0.0 0.0
0.0 0.0 0.0
0.0 0.0 0.0
0.0 0.0 0.0
0.0 0.0 0.0
0.0 0.0 0.0
0.0 0.0 0.0
0.0 0.0 0.0
0.0 0.0 0.0
0.0 0.0 0.0
0.0 0.0 0.0
0.0 0.0 0.0
0.0 0.0 0.0
0.0 0.0 0.0
0.0 0.0 0.0
0.0 0.0 0.0
0.0 0.0 0.0
0.0 0.0 0.0
0.0 0.0 0.0
0.0 0.0 0.0
0.0 0.0 0.0
0.0 0.0 0.0
0.0 0.0 0.0
0.0 0.0 0.0
0.0 0.0 0.0
0.0 0.0 0.0
0.0 0.0 0.0
0.0 0.0 0.0
0.0 0.0 0.0
0.0 0.0 0.0
0.0 0.0 0.0
0.0 0.0 0.0
0.0 0.0 0.0
0.0 0.0 0.0
0.0 0.0 0.0
0.0 0.0 0.0
0.0 0.0 0.0
0.0 0.0 0.0
0.0 0.0 0.0
0.0 0.0 0.0
0.0 0.0 0.0
0.0 0.0 0.0
0.0 0.0 0.0
0.0 0.0 0.0
0.0 0.0 0.0
0.0 0.0 0.0
0.0 0.0 0.0
0.0 0.0 0.0
0.0 0.0 0.0
0.0 0.0 0.0
0.0 0.0 0.0
0.0 0.0 0.0
0.0 0.0 0.0
0.0 0.0 0.0
0.0 0.0 0.0
0.0 0.0 0.0
0.0 0.0 0.0
0.0 0.0 0.0
0.0 0.0 0.0
0.0 0.0 0.0
0.0 0.0 0.0
0.0 0.0 0.0
0.0 0.0 0.0
0.0 0.0 0.0
0.0 0.0 0.0
0.0 0.0 0.0
0.0 0.0 0.0
0.0 0.0 0.0
0.0 0.0 0.0
0.0 0.0 0.0
0.0 0.0 0.0
0.0 0.0 0.0
0.0 0.0 0.0
0.0 0.0 0.0
0.0 0.0 0.0
0.0 0.0 0.0
0.0 0.0 0.0
0.0 0.0 0.0
0.0 0.0 0.0
0.0 0.0 0.0
0.0 0.0 0.0
0.0 0.0 0.0
0.0 0.0 0.0
0.0 0.0 0.0
0.0 0.0 0.0
0.0 0.0 0.0
0.0 0.0 0.0
0.0 0.0 0.0
0.0 0.0 0.0
0.0 0.0 0.0
0.0 0.0 0.0
0.0 0.0 0.0
0.0 0.0 0.0
0.0 0.0 0.0
0.0 0.0 0.0
0.0 0.0 0.0
0.0 0.0 0.0
0.0 0.0 0.0
0.0 0.0 0.0
0.0 0.0 0.0
0.0 0.0 0.0
0.0 0.0 0.0
0.0 0.0 0.0
0.0 0.0 0.0
0.0 0.0 0.0
0.0 0.0 0.0
0.0 0.0 0.0
0.0 0.0 0.0
0.0 0.0 0.0
0.0 0.0 0.0
0.0 0.0 0.0
0.0 0.0 0.0
0.0 0.0 0.0
0.0 0.0 0.0
0.0 0.0 0.0
0.0 0.0 0.0
0.0 0.0 0.0
0.0 0.0 0.0
0.0 0.0 0.0
0.0 0.0 0.0
0.0 0.0 0.0
0.0 0.0 0.0
0.0 0.0 0.0
0.0 0.0 0.0
0.0 0.0 0.0
0.0 0.0 0.0
0.0 0.0 0.0
0.0 0.0 0.0
0.0 0.0 0.0
0.0 0.0 0.0
0.0 0.0 0.0
0.0 0.0 0.0
0.0 0.0 0.0
0.0 0.0 0.0
0.0 0.0 0.0
0.0 0.0 0.0
0.0 0.0 0.0
0.0 0.0 0.0
0.0 0.0 0.0
0.0 0.0 0.0
0.0 0.0 0.0
0.0 0.0 0.0
0.0 0.0 0.0
0.0 0.0 0.0
0.0 0.0 0.0
0.0 0.0 0.0
0.0 0.0 0.0
0.0 0.0 0.0
0.0 0.0 0.0
0.0 0.0 0.0
0.0 0.0 0.0
0.0 0.0 0.0
0.0 0.0 0.0
0.0 0.0 0.0
0.0 0.0 0.0
0.0 0.0 0.0
0.0 0.0 0.0
0.0 0.0 0.0
0.0 0.0 0.0
0.0 0.0 0.0
0.0 0.0 0.0
0.0 0.0 0.0
0.0 0.0 0.0
0.0 0.0 0.0
0.0 0.0 0.0
0.0 0.0 0.0
0.0 0.0 0.0
0.0 0.0 0.0
0.0 0.0 0.0
0.0 0.0 0.0
0.0 0.0 0.0
0.0 0.0 0.0
0.0 0.0 0.0
0.0 0.0 0.0
0.0 0.0 0.0
0.0 0.0 0.0
0.0 0.0 0.0
0.0 0.0 0.0
0.0 0.0 0.0
0.0 0.0 0.0
0.0 0.0 0.0
0.0 0.0 0.0
0.0 0.0 0.0
0.0 0.0 0.0
0.0 0.0 0.0
0.0 0.0 0.0
0.0 0.0 0.0
0.0 0.0 0.0
0.0 0.0 0.0
0.0 0.0 0.0
0.0 0.0 0.0
0.0 0.0 0.0
0.0 0.0 0.0
0.0 0.0 0.0
0.0 0.0 0.0
0.0 0.0 0.0
0.0 0.0 0.0
0.0 0.0 0.0
0.0 0.0 0.0
0.0 0.0 0.0
0.0 0.0 0.0
0.0 0.0 0.0
0.0 0.0 0.0
0.0 0.0 0.0
0.0 0.0 0.0
0.0 0.0 0.0
0.0 0.0 0.0
0.0 0.0 0.0
0.0 0.0 0.0
0.0 0.0 0.0
0.0 0.0 0.0
0.0 0.0 0.0
0.0 0.0 0.0
0.0 0.0 0.0
0.0 0.0 0.0
0.0 0.0 0.0
0.0 0.0 0.0
0.0 0.0 0.0
0.0 0.0 0.0
0.0 0.0 0.0
0.0 0.0 0.0
0.0 0.0 0.0
0.0 0.0 0.0
0.0 0.0 0.0
0.0 0.0 0.0
0.0 0.0 0.0
0.0 0.0 0.0
0.0 0.0 0.0
0.0 0.0 0.0
0.0 0.0 0.0
0.0 0.0 0.0
0.0 0.0 0.0
0.0 0.0 0.0
0.0 0.0 0.0
0.0 0.0 0.0
0.0 0.0 0.0
0.0 0.0 0.0
0.0 0.0 0.0
0.0 0.0 0.0
0.0 0.0 0.0
0.0 0.0 0.0
0.0 0.0 0.0
0.0 0.0 0.0
0.0 0.0 0.0
0.0 0.0 0.0
0.0 0.0 0.0
0.0 0.0 0.0
0.0 0.0 0.0
0.0 0.0 0.0
0.0 0.0 0.0
0.0 0.0 0.0
0.0 0.0 0.0
0.0 0.0 0.0
0.0 0.0 0.0
0.0 0.0 0.0
0.0 0.0 0.0
0.0 0.0 0.0
0.554495268562 -0.00562214527118 0.0
0.92102796151 -0.00940272720273 0.0
1.07124599289 -0.0102513127614 0.0
1.15235374023 -0.0149452229173 0.0
1.21675551556 -0.0167035342189 0.0
1.1731940642 -0.0068850967023 0.0
1.14366541363 -0.0213245411255 0.0
1.17621357243 -0.0211101139629 0.0
1.15319881736 -0.0290476007006 0.0
1.18691602587 -0.0305006314069 0.0
1.12779775206 -0.0338173017801 0.0
1.17264582092 -0.0473076123963 0.0
1.07937827648 -0.0377287275353 0.0
0.995023641954 -0.0529251637532 0.0
0.972751143241 -0.0785435648586 0.0
0.954703036311 -0.16166424742 0.0
0.275070113772 0.00353490632174 0.0
0.72767942001 0.00541157426828 0.0
0.999189688264 0.00333824775114 0.0
1.11968906533 0.00465992301903 0.0
1.16376271459 0.00603884554925 0.0
1.18299070627 0.00173118693182 0.0
1.16578726881 -0.000261925766918 0.0
1.1764276666 0.0125730058673 0.0
1.18481456427 0.0096552899972 0.0
1.17648239847 0.0184433896989 0.0
1.17442565785 0.0127497327762 0.0
1.18071561615 0.0232036174015 0.0
1.15156630998 0.0141550866777 0.0
1.20098420761 0.0207765055637 0.0
1.15533627878 0.0159240409439 0.0
1.20488963339 0.0556304504715 0.0
1.08932659921 0.0637972226895 0.0
-2.32284037661 0.0 0.0
-2.23464034741 0.0 0.0
-2.13018386799 0.0 0.0
-2.12986587817 0.0 0.0
-2.09658431861 0.0 0.0
-2.20394182277 0.0 0.0
-1.77223285864 0.0 0.0
-2.28398811788 0.0 0.0
-1.81229933701 0.0 0.0
-2.16850124593 0.0 0.0
-2.3328751409 0.0 0.0
-1.78197631592 0.0 0.0
-2.21690278201 0.0 0.0
-2.20603045456 0.0 0.0
-2.19524006658 0.0 0.0
-2.18652747683 0.0 0.0
-2.23739921175 0.0 0.0
-1.81229316659 0.0 0.0
-2.09862235443 0.0 0.0
-2.18905657265 0.0 0.0
-2.00065302862 0.0 0.0
-1.91690522787 0.0 0.0
-2.2526257625 0.0 0.0
-1.83825481228 0.0 0.0
-2.08794460579 0.0 0.0
-2.16561431107 0.0 0.0
-2.26559864795 0.0 0.0
-1.98601514462 0.0 0.0
-2.22771393854 0.0 0.0
-2.19421271038 0.0 0.0
-2.22756728311 0.0 0.0
-1.75735201309 0.0 0.0
-2.33207024789 0.0 0.0
-1.87382283792 0.0 0.0
-3.18649316305 0.0 0.0
-1.85215807658 0.0 0.0
-2.20649453872 0.0 0.0
-2.16333415702 0.0 0.0
-2.13722639568 0.0 0.0
-2.19580706377 0.0 0.0
-1.73750627715 0.0 0.0
-2.33878459085 0.0 0.0
-1.85764090907 0.0 0.0
-3.1284945964 0.0 0.0
-1.95443917128 0.0 0.0
-2.09330949101 0.0 0.0
-2.12567219428 0.0 0.0
-2.12841760183 0.0 0.0
-2.19152645536 0.0 0.0
-1.69837721422 0.0 0.0
-2.34991374641 0.0 0.0
-1.83499059257 0.0 0.0
-3.09102587818 0.0 0.0
-1.93193613085 0.0 0.0
-2.03997714938 0.0 0.0
-2.1795397599 0.0 0.0
-2.1473609424 0.0 0.0
-2.1995458767 0.0 0.0
-1.69514068029 0.0 0.0
-2.35470180105 0.0 0.0
-1.82712127303 0.0 0.0
-3.07711789863 0.0 0.0
-1.94889335435 0.0 0.0
-2.02588022778 0.0 0.0
-2.14416028694 0.0 0.0
-2.25310809599 0.0 0.0
-2.10094268186 0.0 0.0
-2.05871408106 0.0 0.0
-1.95911348642 0.0 0.0
-2.02033970726 0.0 0.0
-1.99674908443 0.0 0.0
-2.10584331744 0.0 0.0
-2.35402685334 0.0 0.0
-1.75864072839 0.0 0.0
-2.28257985665 0.0 0.0
-2.11636455748 0.0 0.0
-2.21043006425 0.0 0.0
-2.15280435287 0.0 0.0
-1.7141290776 0.0 0.0
-2.25754775168 0.0 0.0
-2.24784692052 0.0 0.0
-2.2168810099 0.0 0.0
-2.23729044995 0.0 0.0
-1.74728267393 0.0 0.0
-2.38062099615 0.0 0.0
-2.11511758317 0.0 0.0
-2.00500620173 0.0 0.0
-2.0357485331 0.0 0.0
-1.94938971498 0.0 0.0
-2.10879531953 0.0 0.0
-2.26613787165 0.0 0.0
-2.27176312058 0.0 0.0
-2.09462816614 0.0 0.0
-1.91631964526 0.0 0.0
-1.82868718192 0.0 0.0
-3.1684827501 0.0 0.0
-1.85301475642 0.0 0.0
-2.31505660794 0.0 0.0
-1.70671118925 0.0 0.0
-2.2073886118 0.0 0.0
-2.17538088408 0.0 0.0
-2.17646669313 0.0 0.0
-2.07359430699 0.0 0.0
-1.94448733818 0.0 0.0
-3.08349608046 0.0 0.0
-1.82792022259 0.0 0.0
-2.35498615813 0.0 0.0
-1.69538100645 0.0 0.0
-2.1998428664 0.0 0.0
-2.14763370143 0.0 0.0
-2.1797199493 0.0 0.0
-2.04004812121 0.0 0.0
-1.93188702819 0.0 0.0
-3.09108116536 0.0 0.0
-1.83484272809 0.0 0.0
-2.3497292465 0.0 0.0
-1.69811152132 0.0 0.0
-2.19114536139 0.0 0.0
-2.12804414942 0.0 0.0
-2.12531119896 0.0 0.0
-2.09300232112 0.0 0.0
-1.95430381225 0.0 0.0
-3.12833983639 0.0 0.0
-1.85777566864 0.0 0.0
-2.3391502411 0.0 0.0
-1.73831536587 0.0 0.0
-2.19729373645 0.0 0.0
-2.13896312962 0.0 0.0
-2.16600686788 0.0 0.0
-2.20991010972 0.0 0.0
-1.85690502032 0.0 0.0
-3.19261289406 0.0 0.0
-1.88045345456 0.0 0.0
-2.34017913385 0.0 0.0
-1.76872618121 0.0 0.0
-2.24402871077 0.0 0.0
-2.2120349797 0.0 0.0
-2.25290139566 0.0 0.0
-2.01944567546 0.0 0.0
-2.30312567401 0.0 0.0
-2.21377919793 0.0 0.0
-2.14511280605 0.0 0.0
-1.92450744451 0.0 0.0
-2.37303316337 0.0 0.0
-2.11548120192 0.0 0.0
-2.23302754374 0.0 0.0
-2.52977261881 0.0 0.0
-2.50932963156 0.0 0.0
-2.50664990191 0.0 0.0
-3.31552246623 0.0 0.0
-4.10474535744 0.0 0.0
-4.29770644389 0.0 0.0
-4.9631278792 0.0 0.0
-5.47016015494 0.0 0.0
-4.67560792917 0.0 0.0
-5.56358271991 0.0 0.0
-5.49114088419 0.0 0.0
-4.20083873584 0.0 0.0
-5.6246802218 0.0 0.0
-3.60934293841 0.0 0.0
-5.06905636944 0.0 0.0
-4.28226311236 0.0 0.0
-4.42174524362 0.0 0.0
-4.75251120103 0.0 0.0
-5.24305713191 0.0 0.0
-5.52512773076 0.0 0.0
-1.28750401968 0.0 0.0
-1.11120931789 0.0 0.0
-1.4467128252 0.0 0.0
-1.06128026043 0.0 0.0
-1.3903546469 0.0 0.0
-1.20952908129 0.0 0.0
-1.04005354085 0.0 0.0
-1.29250393663 0.0 0.0
-0.73555796182 0.0 0.0
-1.22293568719 0.0 0.0
-1.04500499803 0.0 0.0
-1.08727766117 0.0 0.0
-1.14009916123 0.0 0.0
-1.44881172717 0.0 0.0
-0.869034748462 0.0 0.0
-1.46591878858 0.0 0.0
-1.31498320503 0.0 0.0
-0.975419165293 0.0 0.0
-0.940776283595 0.0 0.0
-1.41521626743 0.0 0.0
-0.984161973907 0.0 0.0
-1.37523485036 0.0 0.0
-1.18446379709 0.0 0.0
-1.08356953556 0.0 0.0
-1.03299304468 0.0 0.0
-1.4037155465 0.0 0.0
-0.892590122212 0.0 0.0
-1.36787767638 0.0 0.0
-1.39541641194 0.0 0.0
-0.922301660865 0.0 0.0
-1.43003357183 0.0 0.0
-1.17873121758 0.0 0.0
-1.1133390145 0.0 0.0
-1.09767885298 0.0 0.0
-1.90762073809 0.0 0.0
-1.81318979611 0.0 0.0
-1.15396229078 0.0 0.0
-1.4542296073 0.0 0.0
-0.920163918421 0.0 0.0
-1.33924539223 0.0 0.0
-1.28211020495 0.0 0.0
-1.13073369275 0.0 0.0
-1.09496648103 0.0 0.0
-1.86435864407 0.0 0.0
-1.9651635384 0.0 0.0
-1.28418173888 0.0 0.0
-1.36647251407 0.0 0.0
-0.932663054039 0.0 0.0
-1.34339488396 0.0 0.0
-1.23688875647 0.0 0.0
-1.13192074053 0.0 0.0
-1.0951225352 0.0 0.0
-1.85165495691 0.0 0.0
-1.90626082742 0.0 0.0
-1.22854886448 0.0 0.0
-1.40527913055 0.0 0.0
-0.918986457172 0.0 0.0
-1.3425011436 0.0 0.0
-1.24076651257 0.0 0.0
-1.13003673117 0.0 0.0
-1.09784624013 0.0 0.0
-1.87809676728 0.0 0.0
-1.87322759341 0.0 0.0
-1.21936779912 0.0 0.0
-1.38374145279 0.0 0.0
-0.968700688275 0.0 0.0
-1.22892516789 0.0 0.0
-1.41734793355 0.0 0.0
-0.99524076406 0.0 0.0
-1.12880129237 0.0 0.0
-1.32884177983 0.0 0.0
-1.33466509718 0.0 0.0
-1.04204060505 0.0 0.0
-1.15578966446 0.0 0.0
-1.27055221233 0.0 0.0
-0.8766476266 0.0 0.0
-1.47747490195 0.0 0.0
-1.01824324699 0.0 0.0
-1.21492793929 0.0 0.0
-1.20516947242 0.0 0.0
-1.31628756783 0.0 0.0
-0.913539236875 0.0 0.0
-1.52492043023 0.0 0.0
-1.14241116948 0.0 0.0
-1.10021794146 0.0 0.0
-1.03747946682 0.0 0.0
-1.34903831466 0.0 0.0
-1.33499716171 0.0 0.0
-1.13379242526 0.0 0.0
-1.02491882118 0.0 0.0
-1.45323136823 0.0 0.0
-1.14866736763 0.0 0.0
-1.43420211361 0.0 0.0
-1.04254513514 0.0 0.0
-1.17555327505 0.0 0.0
-1.8104347644 0.0 0.0
-1.9081335376 0.0 0.0
-1.13231845439 0.0 0.0
-1.15103964186 0.0 0.0
-1.23603278985 0.0 0.0
-1.37744564121 0.0 0.0
-0.930896857137 0.0 0.0
-1.40714751396 0.0 0.0
-1.24320034311 0.0 0.0
-1.8708341487 0.0 0.0
-1.88210287104 0.0 0.0
-1.09813659125 0.0 0.0
-1.13021552681 0.0 0.0
-1.24095789671 0.0 0.0
-1.34266835038 0.0 0.0
-0.919089901711 0.0 0.0
-1.40536721842 0.0 0.0
-1.22856352063 0.0 0.0
-1.90622491479 0.0 0.0
-1.85167576829 0.0 0.0
-1.09503629628 0.0 0.0
-1.13182304993 0.0 0.0
-1.23667608117 0.0 0.0
-1.34314307447 0.0 0.0
-0.932491685548 0.0 0.0
-1.36622862614 0.0 0.0
-1.28400174424 0.0 0.0
-1.9650964178 0.0 0.0
-1.8641764211 0.0 0.0
-1.09507726072 0.0 0.0
-1.13085724218 0.0 0.0
-1.28279953016 0.0 0.0
-1.34028344316 0.0 0.0
-0.920977441844 0.0 0.0
-1.4561823681 0.0 0.0
-1.15575541563 0.0 0.0
-1.8173834922 0.0 0.0
-1.91112447249 0.0 0.0
-1.10108634107 0.0 0.0
-1.11679417993 0.0 0.0
-1.18616107301 0.0 0.0
-1.44122304265 0.0 0.0
-0.929720279396 0.0 0.0
-1.41241636008 0.0 0.0
-1.39165118815 0.0 0.0
-0.906677311798 0.0 0.0
-1.43712218089 0.0 0.0
-1.05799481315 0.0 0.0
-1.13258090696 0.0 0.0
-1.25565268797 0.0 0.0
-1.5199797477 0.0 0.0
-1.09092148233 0.0 0.0
-1.627417091 0.0 0.0
-1.08146224854 0.0 0.0
-1.28964545165 0.0 0.0
-2.03591308914 0.0 0.0
-2.82426346599 0.0 0.0
-1.63474149286 0.0 0.0
-3.56680660353 0.0 0.0
-2.78968748186 0.0 0.0
-2.76863370842 0.0 0.0
-2.58759074929 0.0 0.0
-3.23006530987 0.0 0.0
-1.77481809847 0.0 0.0
-3.37424358134 0.0 0.0
-2.40938593366 0.0 0.0
-2.70282492132 0.0 0.0
-2.64519296952 0.0 0.0
-2.22478461012 0.0 0.0
-2.89639404953 0.0 0.0
-2.51622927218 0.0 0.0
-3.44355124882 0.0 0.0
1.99307958478 0.0 0.0
1.9723183391 0.0 0.0
1.93771626298 0.0 0.0
1.8892733564 0.0 0.0
1.82698961938 0.0 0.0
1.7508650519 0.0 0.0
1.66089965398 0.0 0.0
1.55709342561 0.0 0.0
1.43944636678 0.0 0.0
1.30795847751 0.0 0.0
1.16262975779 0.0 0.0
1.00346020761 0.0 0.0
0.830449826992 0.0 0.0
0.643598615918 0.0 0.0
0.442906574396 0.0 0.0
0.228373702423 0.0 0.0
1.99826989619 0.0 0.0
1.98442906574 0.0 0.0
1.95674740484 0.0 0.0
1.9152249135 0.0 0.0
1.8598615917 0.0 0.0
1.79065743945 0.0 0.0
1.70761245675 0.0 0.0
1.6107266436 0.0 0.0
1.5 0.0 0.0
1.37543252595 0.0 0.0
1.23702422146 0.0 0.0
1.08477508651 0.0 0.0
0.918685121109 0.0 0.0
0.738754325261 0.0 0.0
0.544982698963 0.0 0.0
0.337370242215 0.0 0.0
0.115916955018 0.0 0.0
1.15936204682 0.00513055761311 0.0
1.44995338368 0.00140312196187 0.0
1.16845457967 0.000533200141229 0.0
1.1443272542 0.157707708492 0.0
1.16903903703 -0.0019517293221 0.0
1.174591087 0.0246086335032 0.0
1.18357086558 0.0035037112167 0.0
1.18204510302 -0.000798737667206 0.0
1.19518961012 0.00320961607228 0.0
1.19586643964 -0.00279029555016 0.0
1.19585829075 0.0027793890973 0.0
1.195964937 -0.0029927759274 0.0
1.19611940026 0.00295738974059 0.0
1.1957076008 -0.00303074955759 0.0
1.19540590702 0.0034032864044 0.0
1.16968950355 4.82829876894e-06 0.0
1.17018343036 -0.000726113496832 0.0
1.17364153394 -0.00201745590073 0.0
1.1730466089 0.00023768162981 0.0
1.00772148504 0.174433154826 0.0
1.16827312778 -0.0120674722694 0.0
1.35359816934 0.100989751458 0.0
1.17939561857 0.00328406037313 0.0
1.15358721501 0.0327679509174 0.0
1.15053778888 0.00491180831582 0.0
1.18020638462 -0.00380934928698 0.0
1.17917110654 0.00698583572456 0.0
1.18351984218 -0.0031714920173 0.0
1.18428940878 0.00435546019586 0.0
1.15034826128 -0.00498582512421 0.0
1.1661173942 -0.000438382341415 0.0
1.18100868386 -0.0039904036227 0.0
1.18152792269 0.00310896961759 0.0
1.18218884308 -0.00358836073337 0.0
1.1817305601 0.00305726851629 0.0
1.18282811767 -0.00326500668365 0.0
1.16874616822 0.00171488520911 0.0
1.16749673218 -0.00193704163331 0.0
1.15735028422 0.00209003917871 0.0
1.15749709115 -0.0021969489565 0.0
1.15754332002 0.00216069101872 0.0
1.15722181391 -0.00221411669723 0.0
1.16076670856 -0.00113813368816 0.0
1.16005567501 0.00207214396534 0.0
1.16633600482 0.0100635644286 0.0
1.17391721728 -0.00391319608611 0.0
1.23876022637 0.0728073585662 0.0
1.16966730893 0.00596064741314 0.0
1.13246812777 -0.0021260157571 0.0
1.12391406958 0.00269453310434 0.0
1.16494459678 -0.0010635195257 0.0
1.16804864921 0.0008972894316 0.0
1.05895391968 -0.104340697145 0.0
1.15847320883 -0.00152684301333 0.0
1.17964135028 -0.00139000109053 0.0
1.7147494144 -0.0242724081144 0.0
1.16429654985 -0.00017070586656 0.0
1.07956107076 0.0546300773349 0.0
1.16051642907 0.00152832615822 0.0
1.14918665977 0.00895427049078 0.0
1.20763642474 0.000705505758115 0.0
1.20524451204 0.0011236671259 0.0
1.20582484294 -0.00127948911551 0.0
1.19597008449 0.00558349498595 0.0
1.16220128466 0.00136494699788 0.0
1.16098536426 0.00202707689651 0.0
1.16290792017 0.00138633765673 0.0
1.16466951599 -0.000316207895295 0.0
1.16467987836 0.000362486176615 0.0
1.16445525567 -0.000213100336807 0.0
1.16414776187 0.000345166906849 0.0
1.16367514589 -0.000441721019672 0.0
1.16330150021 0.00189123685777 0.0
1.1969116227 -0.00561211143812 0.0
1.20473156819 0.00100221491442 0.0
1.2048141566 -0.00109557491922 0.0
1.20294833921 0.00174476725248 0.0
1.20311740633 -0.00152688520042 0.0
1.15259741542 -0.00433248690215 0.0
1.15177796112 0.00139752523396 0.0
1.17806126752 0.00271317703061 0.0
1.17494399825 -0.000922848257892 0.0
1.18346006062 0.00141794319874 0.0
1.40816808585 0.496078305623 0.0
1.11497994069 0.00147446572298 0.0
1.14173608551 0.0156348581911 0.0
1.18123529341 -0.00181615789024 0.0
0.827448121381 0.209671091556 0.0
1.17744224458 0.000823747207706 0.0
2.00472825493 -0.278138881335 0.0
1.14084084538 0.000931920132243 0.0
1.14438716075 -0.00997285285001 0.0
1.44023953702 -0.073333845479 0.0
1.15433864828 -0.00449356276101 0.0
1.16361513271 0.00286193122006 0.0
1.16358164843 -0.0024298854299 0.0
1.15914572587 0.00606611448903 0.0
1.19068483735 -0.0035979461229 0.0
1.15958865468 -0.00649672132082 0.0
1.18299826958 -0.00320588376715 0.0
1.18269887211 0.00302180203137 0.0
1.1823663142 0.003305489514 0.0
1.19052364325 0.0447181392141 0.0
1.1811287045 0.00544684955353 0.0
1.18418111196 0.00322788294956 0.0
1.18153438565 -0.00344386596668 0.0
1.18184102154 0.0031787556803 0.0
1.18310345145 -0.00237535626782 0.0
1.18335093643 0.00335295626293 0.0
1.10719231355 0.23033893423 0.0
1.17228493447 -0.00511679825565 0.0
1.10475571679 -0.0152146173657 0.0
1.32804987414 0.150928785328 0.0
1.12869877464 -0.00690107624672 0.0
1.13136940897 0.00824481553826 0.0
1.131521417 -0.0082597989531 0.0
1.13283303066 0.00831721940198 0.0
1.1326568716 -0.00836486426014 0.0
1.12979728454 0.00647083987384 0.0
1.13012799987 -0.00616697681315 0.0
1.15742343606 -0.00490264673825 0.0
1.16432769569 0.00738218445047 0.0
1.26759694203 0.0279764495088 0.0
1.19188593687 0.00676463316297 0.0
1.11536257957 -0.00107132121811 0.0
0.977733262794 0.0507080574423 0.0
1.09421124081 -0.00214299722953 0.0
1.09003084405 0.00300533734336 0.0
1.09197011415 0.000928915303262 0.0
1.07192598005 0.0100011545284 0.0
1.0528211707 0.0221902872683 0.0
1.09778302622 -0.00280403440667 0.0
1.09526266553 -0.00107534953039 0.0
1.09615896363 0.00215247576368 0.0
1.10202000478 -0.000224256785007 0.0
1.10245125131 0.00337840127918 0.0
1.09393050689 -0.00343453714979 0.0
1.09369338712 0.00235974432879 0.0
1.09749239184 0.00209541404567 0.0
1.09828171093 -0.00331606298282 0.0
1.0923173935 -0.0022545730104 0.0
1.09369771426 0.00171933024738 0.0
1.09687430001 -0.00188634566034 0.0
1.09763989634 0.00219501632788 0.0
1.09836138055 0.00340885531804 0.0
1.09840542653 -0.00333535709293 0.0
1.09335396332 -0.000399048818528 0.0
1.09905263535 0.00236533061525 0.0
1.09932757144 -0.00166000296344 0.0
1.10066266038 0.00283652712303 0.0
1.12869196162 0.00767167011411 0.0
1.16897426365 0.00181939998554 0.0
1.14712575201 0.267080942586 0.0
1.14511279332 -0.00568747337092 0.0
1.16340162581 0.00418257390359 0.0
1.16367032951 -0.00245584331086 0.0
1.19184040365 0.0019742218591 0.0
1.19109832531 -0.00211823963826 0.0
1.18472010358 0.0016249468647 0.0
1.18479390089 -0.00191390702383 0.0
1.19846393758 0.00352315448057 0.0
1.19652254544 0.000674173705725 0.0
1.19209481955 -0.00145128550065 0.0
1.18501793334 -0.00172900481365 0.0
1.19149967773 0.00145461943451 0.0
1.18189680918 0.084472206999 0.0
1.18985685656 0.000816770983529 0.0
1.08398666116 -0.000714794232832 0.0
1.08034078482 0.000547975088735 0.0
1.23508507268 0.0184046269479 0.0
2.86160616466 0.0795785849462 0.0
0.729468052058 -0.0767173106153 0.0
1.1029407745 0.000619282269008 0.0
1.08901960843 -0.00749047839203 0.0
0.843952653715 0.0960381651795 0.0
1.13442693051 -0.0250608853468 0.0
1.15025153385 0.0308919907072 0.0
1.10948682884 -0.00959198465659 0.0
1.11113910372 0.0102868008186 0.0
1.10334656899 -0.0141497119648 0.0
1.10311865292 0.0141772610385 0.0