# vtk DataFile Version 2.0
2D Simulation Python
ASCII
DATASET UNSTRUCTURED_GRID
FIELD FieldData 1
NODES 1 2 int
2790 1289

POINTS 2790 double
0.0 1.0 0.0
1.725 1.0 0.0
8.275 1.0 0.0
20.0 1.0 0.0
20.0 0.0 0.0
0.0 0.0 0.0
0.1916666666663293 1.0 0.0
0.3833333333324708 1.0 0.0
0.574999999998553 1.0 0.0
0.7666666666645966 1.0 0.0
0.9583333333312576 1.0 0.0
1.149999999998384 1.0 0.0
1.341666666665662 1.0 0.0
1.533333333332819 1.0 0.0
0.0958333333331406 1.0 0.0
0.2874999999994247 1.0 0.0
0.4791666666655395 1.0 0.0
0.6708333333315728 1.0 0.0
0.8624999999976626 1.0 0.0
1.054166666664886 1.0 0.0
1.245833333332057 1.0 0.0
1.437499999999343 1.0 0.0
1.629166666666455 1.0 0.0
1.92348484848444 1.0 0.0
2.121969696968978 1.0 0.0
2.320454545453434 1.0 0.0
2.518939393937826 1.0 0.0
2.717424242422235 1.0 0.0
2.915909090906411 1.0 0.0
3.1143939393908 1.0 0.0
3.312878787875129 1.0 0.0
3.511363636359531 1.0 0.0
3.709848484843827 1.0 0.0
3.90833333332816 1.0 0.0
4.106818181812215 1.0 0.0
4.305303030296804 1.0 0.0
4.503787878781365 1.0 0.0
4.702272727265711 1.0 0.0
4.900757575750005 1.0 0.0
5.099242424235156 1.0 0.0
5.297727272720327 1.0 0.0
5.496212121205663 1.0 0.0
5.694696969690998 1.0 0.0
5.89318181817668 1.0 0.0
6.09166666666213 1.0 0.0
6.290151515147423 1.0 0.0
6.488636363633031 1.0 0.0
6.687121212118713 1.0 0.0
6.885606060604342 1.0 0.0
7.084090909089381 1.0 0.0
7.282575757574369 1.0 0.0
7.481060606059355 1.0 0.0
7.679545454544343 1.0 0.0
7.878030303029329 1.0 0.0
8.076515151514705 1.0 0.0
1.824242424242199 1.0 0.0
2.022727272726695 1.0 0.0
2.221212121211181 1.0 0.0
2.41969696969563 1.0 0.0
2.618181818180092 1.0 0.0
2.816666666664316 1.0 0.0
3.015151515148624 1.0 0.0
3.213636363633039 1.0 0.0
3.412121212117267 1.0 0.0
3.610606060601583 1.0 0.0
3.809090909085975 1.0 0.0
4.007575757570153 1.0 0.0
4.206060606054539 1.0 0.0
4.404545454539001 1.0 0.0
4.603030303023853 1.0 0.0
4.801515151507715 1.0 0.0
4.999999999992074 1.0 0.0
5.198484848477777 1.0 0.0
5.396969696963081 1.0 0.0
5.595454545448261 1.0 0.0
5.793939393933949 1.0 0.0
5.992424242419331 1.0 0.0
6.190909090904785 1.0 0.0
6.389393939390224 1.0 0.0
6.587878787875795 1.0 0.0
6.786363636361617 1.0 0.0
6.984848484846598 1.0 0.0
7.183333333331875 1.0 0.0
7.381818181816625 1.0 0.0
7.580303030301849 1.0 0.0
7.778787878786936 1.0 0.0
7.977272727272114 1.0 0.0
8.175757575757618 1.0 0.0
8.473728813558951 1.0 0.0
8.672457627118133 1.0 0.0
8.871186440676855 1.0 0.0
9.069915254236154 1.0 0.0
9.268644067794812 1.0 0.0
9.467372881354057 1.0 0.0
9.666101694912944 1.0 0.0
9.864830508471961 1.0 0.0
10.06355932203108 1.0 0.0
10.26228813558986 1.0 0.0
10.46101694914916 1.0 0.0
10.65974576270777 1.0 0.0
10.85847457626706 1.0 0.0
11.05720338982589 1.0 0.0
11.25593220338497 1.0 0.0
11.45466101694402 1.0 0.0
11.65338983050287 1.0 0.0
11.85211864406215 1.0 0.0
12.05084745762035 1.0 0.0
12.24957627117938 1.0 0.0
12.44830508473794 1.0 0.0
12.64703389829659 1.0 0.0
12.84576271185557 1.0 0.0
13.04449152541379 1.0 0.0
13.24322033897301 1.0 0.0
13.44194915253121 1.0 0.0
13.6406779660903 1.0 0.0
13.83940677964874 1.0 0.0
14.03813559320751 1.0 0.0
14.23686440676681 1.0 0.0
14.43559322032663 1.0 0.0
14.63432203388679 1.0 0.0
14.8330508474463 1.0 0.0
15.0317796610067 1.0 0.0
15.23050847456608 1.0 0.0
15.42923728812645 1.0 0.0
15.62796610168606 1.0 0.0
15.82669491524602 1.0 0.0
16.02542372880584 1.0 0.0
16.22415254236431 1.0 0.0
16.42288135592496 1.0 0.0
16.62161016948498 1.0 0.0
16.82033898304518 1.0 0.0
17.01906779660567 1.0 0.0
17.2177966101654 1.0 0.0
17.41652542372565 1.0 0.0
17.61525423728425 1.0 0.0
17.81398305084494 1.0 0.0
18.01271186440355 1.0 0.0
18.21144067796387 1.0 0.0
18.41016949152309 1.0 0.0
18.6088983050827 1.0 0.0
18.80762711864282 1.0 0.0
19.00635593220153 1.0 0.0
19.20508474576211 1.0 0.0
19.40381355932072 1.0 0.0
19.60254237288117 1.0 0.0
19.80127118644013 1.0 0.0
8.374364406779554 1.0 0.0
8.573093220338519 1.0 0.0
8.771822033897509 1.0 0.0
8.970550847456504 1.0 0.0
9.169279661015429 1.0 0.0
9.368008474574502 1.0 0.0
9.566737288133496 1.0 0.0
9.765466101692677 1.0 0.0
9.964194915251602 1.0 0.0
10.16292372881015 1.0 0.0
10.36165254236967 1.0 0.0
10.56038135592849 1.0 0.0
10.75911016948728 1.0 0.0
10.95783898304648 1.0 0.0
11.15656779660554 1.0 0.0
11.35529661016447 1.0 0.0
11.55402542372345 1.0 0.0
11.75275423728253 1.0 0.0
11.95148305084111 1.0 0.0
12.15021186439983 1.0 0.0
12.34894067795883 1.0 0.0
12.54766949151722 1.0 0.0
12.74639830507616 1.0 0.0
12.94512711863486 1.0 0.0
13.14385593219357 1.0 0.0
13.34258474575207 1.0 0.0
13.54131355931069 1.0 0.0
13.7400423728695 1.0 0.0
13.93877118642822 1.0 0.0
14.13749999998697 1.0 0.0
14.33622881354686 1.0 0.0
14.53495762710678 1.0 0.0
14.73368644066656 1.0 0.0
14.93241525422655 1.0 0.0
15.13114406778625 1.0 0.0
15.32987288134641 1.0 0.0
15.52860169490635 1.0 0.0
15.7273305084661 1.0 0.0
15.9260593220261 1.0 0.0
16.12478813558534 1.0 0.0
16.32351694914468 1.0 0.0
16.52224576270527 1.0 0.0
16.72097457626511 1.0 0.0
16.91970338982543 1.0 0.0
17.11843220338561 1.0 0.0
17.31716101694539 1.0 0.0
17.51588983050497 1.0 0.0
17.71461864406449 1.0 0.0
17.91334745762401 1.0 0.0
18.11207627118383 1.0 0.0
18.31080508474307 1.0 0.0
18.50953389830311 1.0 0.0
18.70826271186271 1.0 0.0
18.90699152542239 1.0 0.0
19.10572033898203 1.0 0.0
19.30444915254171 1.0 0.0
19.50317796610107 1.0 0.0
19.70190677966065 1.0 0.0
19.90063559322003 1.0 0.0
20.0 0.7999999999999998 0.0
20.0 0.6000000000013869 0.0
20.0 0.4000000000016644 0.0
20.0 0.2000000000008322 0.0
20.0 0.9000000000000369 0.0
20.0 0.7000000000005904 0.0
20.0 0.5000000000017577 0.0
20.0 0.3000000000012483 0.0
20.0 0.1000000000004161 0.0
19.8 0.0 0.0
19.6 0.0 0.0
19.4 0.0 0.0
19.2 0.0 0.0
19.0 0.0 0.0
18.8 0.0 0.0
18.6 0.0 0.0
18.4 0.0 0.0
18.2 0.0 0.0
18.0 0.0 0.0
17.8 0.0 0.0
17.59999999999999 0.0 0.0
17.4 0.0 0.0
17.2 0.0 0.0
16.99999999999999 0.0 0.0
16.79999999999999 0.0 0.0
16.59999999999999 0.0 0.0
16.4 0.0 0.0
16.2 0.0 0.0
15.99999999999999 0.0 0.0
15.79999999999999 0.0 0.0
15.59999999999999 0.0 0.0
15.4 0.0 0.0
15.2 0.0 0.0
15.0 0.0 0.0
14.79999999999999 0.0 0.0
14.59999999999999 0.0 0.0
14.4 0.0 0.0
14.2 0.0 0.0
13.99999999999999 0.0 0.0
13.8 0.0 0.0
13.59999999999999 0.0 0.0
13.4 0.0 0.0
13.2 0.0 0.0
13.0 0.0 0.0
12.79999999999999 0.0 0.0
12.6 0.0 0.0
12.4 0.0 0.0
12.2 0.0 0.0
11.99999999999999 0.0 0.0
11.8 0.0 0.0
11.6 0.0 0.0
11.4 0.0 0.0
11.2 0.0 0.0
11.0 0.0 0.0
10.8 0.0 0.0
10.6 0.0 0.0
10.4 0.0 0.0
10.2 0.0 0.0
9.999999999999998 0.0 0.0
9.799999999999995 0.0 0.0
9.599999999999998 0.0 0.0
9.399999999999997 0.0 0.0
9.199999999999998 0.0 0.0
8.999999999999996 0.0 0.0
8.799999999999997 0.0 0.0
8.599999999999996 0.0 0.0
8.399999999999999 0.0 0.0
8.199999999999996 0.0 0.0
7.999999999999998 0.0 0.0
7.799999999999997 0.0 0.0
7.599999999999998 0.0 0.0
7.399999999999999 0.0 0.0
7.199999999999998 0.0 0.0
6.999999999999995 0.0 0.0
6.799999999999995 0.0 0.0
6.599999999999998 0.0 0.0
6.399999999999997 0.0 0.0
6.199999999999996 0.0 0.0
5.999999999999998 0.0 0.0
5.799999999999999 0.0 0.0
5.599999999999996 0.0 0.0
5.399999999999995 0.0 0.0
5.199999999999996 0.0 0.0
4.999999999999998 0.0 0.0
4.799999999999997 0.0 0.0
4.599999999999998 0.0 0.0
4.399999999999999 0.0 0.0
4.199999999999999 0.0 0.0
3.999999999999996 0.0 0.0
3.799999999999997 0.0 0.0
3.599999999999998 0.0 0.0
3.399999999999999 0.0 0.0
3.199999999999999 0.0 0.0
3.0 0.0 0.0
2.800000000000001 0.0 0.0
2.599999999999998 0.0 0.0
2.399999999999999 0.0 0.0
2.199999999999996 0.0 0.0
1.999999999999996 0.0 0.0
1.800000000000001 0.0 0.0
1.599999999999998 0.0 0.0
1.399999999999999 0.0 0.0
1.200000000000003 0.0 0.0
1.0 0.0 0.0
0.7999999999999972 0.0 0.0
0.5999999999999979 0.0 0.0
0.3999999999999986 0.0 0.0
0.1999999999999993 0.0 0.0
19.90000000000022 0.0 0.0
19.69999999999997 0.0 0.0
19.49999999999987 0.0 0.0
19.30000000000005 0.0 0.0
19.09999999999999 0.0 0.0
18.89999999999987 0.0 0.0
18.7 0.0 0.0
18.49999999999999 0.0 0.0
18.30000000000001 0.0 0.0
18.09999999999987 0.0 0.0
17.90000000000013 0.0 0.0
17.7 0.0 0.0
17.49999999999987 0.0 0.0
17.30000000000025 0.0 0.0
17.10000000000001 0.0 0.0
16.90000000000005 0.0 0.0
16.70000000000003 0.0 0.0
16.50000000000006 0.0 0.0
16.29999999999997 0.0 0.0
16.09999999999999 0.0 0.0
15.89999999999987 0.0 0.0
15.69999999999999 0.0 0.0
15.49999999999999 0.0 0.0
15.3 0.0 0.0
15.10000000000003 0.0 0.0
14.90000000000005 0.0 0.0
14.69999999999992 0.0 0.0
14.49999999999996 0.0 0.0
14.29999999999999 0.0 0.0
14.10000000000008 0.0 0.0
13.89999999999988 0.0 0.0
13.70000000000003 0.0 0.0
13.50000000000004 0.0 0.0
13.29999999999992 0.0 0.0
13.09999999999995 0.0 0.0
12.90000000000016 0.0 0.0
12.7 0.0 0.0
12.49999999999986 0.0 0.0
12.30000000000003 0.0 0.0
12.10000000000016 0.0 0.0
11.90000000000005 0.0 0.0
11.69999999999994 0.0 0.0
11.49999999999993 0.0 0.0
11.30000000000005 0.0 0.0
11.0999999999999 0.0 0.0
10.90000000000004 0.0 0.0
10.69999999999995 0.0 0.0
10.50000000000012 0.0 0.0
10.29999999999999 0.0 0.0
10.09999999999993 0.0 0.0
9.900000000000077 0.0 0.0
9.699999999999969 0.0 0.0
9.499999999999982 0.0 0.0
9.299999999999969 0.0 0.0
9.100000000000108 0.0 0.0
8.899999999999972 0.0 0.0
8.699999999999958 0.0 0.0
8.499999999999998 0.0 0.0
8.30000000000003 0.0 0.0
8.099999999999977 0.0 0.0
7.899999999999974 0.0 0.0
7.700000000000166 0.0 0.0
7.499999999999854 0.0 0.0
7.299999999999997 0.0 0.0
7.100000000000019 0.0 0.0
6.900000000000002 0.0 0.0
6.699999999999974 0.0 0.0
6.500000000000037 0.0 0.0
6.299999999999981 0.0 0.0
6.100000000000014 0.0 0.0
5.899999999999949 0.0 0.0
5.700000000000049 0.0 0.0
5.499999999999956 0.0 0.0
5.300000000000118 0.0 0.0
5.100000000000005 0.0 0.0
4.900000000000109 0.0 0.0
4.699999999999982 0.0 0.0
4.499999999999936 0.0 0.0
4.300000000000137 0.0 0.0
4.100000000000012 0.0 0.0
3.899999999999888 0.0 0.0
3.69999999999974 0.0 0.0
3.500000000000046 0.0 0.0
3.299999999999965 0.0 0.0
3.099999999999817 0.0 0.0
2.900000000000066 0.0 0.0
2.699999999999793 0.0 0.0
2.500000000000064 0.0 0.0
2.299999999999823 0.0 0.0
[...]
POINT_DATA 2790
VECTORS vector double
1.0 0.0 0.0
0.0 0.0 0.0
0.0 0.0 0.0
0.0 0.0 0.0
1.14982882504 0.0 0.0
1.0 0.0 0.0
0.0 0.0 0.0
0.0 0.0 0.0
0.0 0.0 0.0
0.0 0.0 0.0
0.0 0.0 0.0
0.0 0.0 0.0
0.0 0.0 0.0
0.0 0.0 0.0
0.0 0.0 0.0
0.0 0.0 0.0
0.0 0.0 0.0
0.0 0.0 0.0
0.0 0.0 0.0
0.0 0.0 0.0
0.0 0.0 0.0
0.0 0.0 0.0
0.0 0.0 0.0
0.0 0.0 0.0
0.0 0.0 0.0
0.0 0.0 0.0
0.0 0.0 0.0
0.0 0.0 0.0
0.0 0.0 0.0
0.0 0.0 0.0
0.0 0.0 0.0
0.0 0.0 0.0
0.0 0.0 0.0
0.0 0.0 0.0
0.0 0.0 0.0
0.0 0.0 0.0
0.0 0.0 0.0
0.0 0.0 0.0
0.0 0.0 0.0
0.0 0.0 0.0
0.0 0.0 0.0
0.0 0.0 0.0
0.0 0.0 0.0
0.0 0.0 0.0
0.0 0.0 0.0
0.0 0.0 0.0
0.0 0.0 0.0
0.0 0.0 0.0
0.0 0.0 0.0
0.0 0.0 0.0
0.0 0.0 0.0
0.0 0.0 0.0
0.0 0.0 0.0
0.0 0.0 0.0
0.0 0.0 0.0
0.0 0.0 0.0
0.0 0.0 0.0
0.0 0.0 0.0
0.0 0.0 0.0
0.0 0.0 0.0
0.0 0.0 0.0
0.0 0.0 0.0
0.0 0.0 0.0
0.0 0.0 0.0
0.0 0.0 0.0
0.0 0.0 0.0
0.0 0.0 0.0
0.0 0.0 0.0
0.0 0.0 0.0
0.0 0.0 0.0
0.0 0.0 0.0
0.0 0.0 0.0
0.0 0.0 0.0
0.0 0.0 0.0
0.0 0.0 0.0
0.0 0.0 0.0
0.0 0.0 0.0
0.0 0.0 0.0
0.0 0.0 0.0
0.0 0.0 0.0
0.0 0.0 0.0
0.0 0.0 0.0
0.0 0.0 0.0
0.0 0.0 0.0
0.0 0.0 0.0
0.0 0.0 0.0
0.0 0.0 0.0
0.0 0.0 0.0
0.0 0.0 0.0
0.0 0.0 0.0
0.0 0.0 0.0
0.0 0.0 0.0
0.0 0.0 0.0
0.0 0.0 0.0
0.0 0.0 0.0
0.0 0.0 0.0
0.0 0.0 0.0
0.0 0.0 0.0
0.0 0.0 0.0
0.0 0.0 0.0
0.0 0.0 0.0
0.0 0.0 0.0
0.0 0.0 0.0
0.0 0.0 0.0
0.0 0.0 0.0
0.0 0.0 0.0
0.0 0.0 0.0
0.0 0.0 0.0
0.0 0.0 0.0
0.0 0.0 0.0
0.0 0.0 0.0
0.0 0.0 0.0
0.0 0.0 0.0
0.0 0.0 0.0
0.0 0.0 0.0
0.0 0.0 0.0
0.0 0.0 0.0
0.0 0.0 0.0
0.0 0.0 0.0
0.0 0.0 0.0
0.0 0.0 0.0
0.0 0.0 0.0
0.0 0.0 0.0
0.0 0.0 0.0
0.0 0.0 0.0
0.0 0.0 0.0
0.0 0.0 0.0
0.0 0.0 0.0
0.0 0.0 0.0
0.0 0.0 0.0
0.0 0.0 0.0
0.0 0.0 0.0
0.0 0.0 0.0
0.0 0.0 0.0
0.0 0.0 0.0
0.0 0.0 0.0
0.0 0.0 0.0
0.0 0.0 0.0
0.0 0.0 0.0
0.0 0.0 0.0
0.0 0.0 0.0
0.0 0.0 0.0
0.0 0.0 0.0
0.0 0.0 0.0
0.0 0.0 0.0
0.0 0.0 0.0
0.0 0.0 0.0
0.0 0.0 0.0
0.0 0.0 0.0
0.0 0.0 0.0
0.0 0.0 0.0
0.0 0.0 0.0
0.0 0.0 0.0
0.0 0.0 0.0
0.0 0.0 0.0
0.0 0.0 0.0
0.0 0.0 0.0
0.0 0.0 0.0
0.0 0.0 0.0
0.0 0.0 0.0
0.0 0.0 0.0
0.0 0.0 0.0
0.0 0.0 0.0
0.0 0.0 0.0
0.0 0.0 0.0
0.0 0.0 0.0
0.0 0.0 0.0
0.0 0.0 0.0
0.0 0.0 0.0
0.0 0.0 0.0
0.0 0.0 0.0
0.0 0.0 0.0
0.0 0.0 0.0
0.0 0.0 0.0
0.0 0.0 0.0
0.0 0.0 0.0
0.0 0.0 0.0
0.0 0.0 0.0
0.0 0.0 0.0
0.0 0.0 0.0
0.0 0.0 0.0
0.0 0.0 0.0
0.0 0.0 0.0
0.0 0.0 0.0
0.0 0.0 0.0
0.0 0.0 0.0
0.0 0.0 0.0
0.0 0.0 0.0
0.0 0.0 0.0
0.0 0.0 0.0
0.0 0.0 0.0
0.0 0.0 0.0
0.0 0.0 0.0
0.0 0.0 0.0
0.0 0.0 0.0
0.0 0.0 0.0
0.0 0.0 0.0
0.0 0.0 0.0
0.0 0.0 0.0
0.0 0.0 0.0
0.0 0.0 0.0
0.0 0.0 0.0
0.0 0.0 0.0
0.0 0.0 0.0
0.0 0.0 0.0
0.925700387275 -0.000306897888164 0.0
1.1589738198 -0.00288430760563 0.0
1.15377844296 0.000226730579803 0.0
1.15047809165 0.000111608667351 0.0
0.490588200275 -0.000653504245517 0.0
1.06701768797 0.00637405503217 0.0
1.1546715697 0.000208070793373 0.0
1.15104615493 -7.43660197713e-06 0.0
1.15094279118 2.1155807071e-05 0.0
1.14980616687 0.0 0.0
1.1493982633 0.0 0.0
1.14905486936 0.0 0.0
1.14855898783 0.0 0.0
1.1473391844 0.0 0.0
1.14687816435 0.0 0.0
1.14626380719 0.0 0.0
1.14567640184 0.0 0.0
1.14562382175 0.0 0.0
1.14565642693 0.0 0.0
1.1456113385 0.0 0.0
1.1458756188 0.0 0.0
1.14598578849 0.0 0.0
1.14592034189 0.0 0.0
1.1455218259 0.0 0.0
1.1455596647 0.0 0.0
1.14593725313 0.0 0.0
1.14550583431 0.0 0.0
1.14551566037 0.0 0.0
1.14592314433 0.0 0.0
1.14547407841 0.0 0.0
1.14549811433 0.0 0.0
1.14590644175 0.0 0.0
1.14545259043 0.0 0.0
1.14547208836 0.0 0.0
1.14587205832 0.0 0.0
1.14540604634 0.0 0.0
1.14541969615 0.0 0.0
1.14582199909 0.0 0.0
1.14535582333 0.0 0.0
1.14535456341 0.0 0.0
1.14570125535 0.0 0.0
1.14515784688 0.0 0.0
1.14510559852 0.0 0.0
1.14541922227 0.0 0.0
1.14484165774 0.0 0.0
1.1447959825 0.0 0.0
1.14514022267 0.0 0.0
1.14443993665 0.0 0.0
1.14410948449 0.0 0.0
1.14475367637 0.0 0.0
1.14432835632 0.0 0.0
1.14411217804 0.0 0.0
1.14493584102 0.0 0.0
1.14475064519 0.0 0.0
1.1448624101 0.0 0.0
1.1460944462 0.0 0.0
1.14636562218 0.0 0.0
1.14732489642 0.0 0.0
1.1499993261 0.0 0.0
1.15180055274 0.0 0.0
1.15316358999 0.0 0.0
1.15386525332 0.0 0.0
1.15369225295 0.0 0.0
1.15158982902 0.0 0.0
1.1487706283 0.0 0.0
1.14634441653 0.0 0.0
1.14514166871 0.0 0.0
1.14373206977 0.0 0.0
1.14314117708 0.0 0.0
1.14383816342 0.0 0.0
1.1439309577 0.0 0.0
1.14435778185 0.0 0.0
1.14606399986 0.0 0.0
1.14723070916 0.0 0.0
1.14965503688 0.0 0.0
1.15474293966 0.0 0.0
1.15911571068 0.0 0.0
1.16256806522 0.0 0.0
1.16486126766 0.0 0.0
1.16526955724 0.0 0.0
1.16268832899 0.0 0.0
1.15940101304 0.0 0.0
1.15547221275 0.0 0.0
1.15181845645 0.0 0.0
1.14957963881 0.0 0.0
1.14692733937 0.0 0.0
1.14539708119 0.0 0.0
1.14519514758 0.0 0.0
1.14525454929 0.0 0.0
1.14460150117 0.0 0.0
1.14536177425 0.0 0.0
1.14668580268 0.0 0.0
1.14723787946 0.0 0.0
1.1488895596 0.0 0.0
1.15035243318 0.0 0.0
1.15019001371 0.0 0.0
1.15031283661 0.0 0.0
1.1498181606 0.0 0.0
1.14828281747 0.0 0.0
1.14652728239 0.0 0.0
1.13678116969 0.0 0.0
1.1169236447 0.0 0.0
1.09317094902 0.0 0.0
1.07490897246 0.0 0.0
1.0589873594 0.0 0.0
1.03957431875 0.0 0.0
1.01968230536 0.0 0.0
1.00411059631 0.0 0.0
1.15089307909 0.0 0.0
1.15039929359 0.0 0.0
1.15025415807 0.0 0.0
1.14939165641 0.0 0.0
1.14855228292 0.0 0.0
1.14784181864 0.0 0.0
1.14728529045 0.0 0.0
1.146488758 0.0 0.0
1.14615327775 0.0 0.0
1.14628831642 0.0 0.0
1.14614181252 0.0 0.0
1.14626287661 0.0 0.0
1.14659263441 0.0 0.0
1.1465247249 0.0 0.0
1.14665851599 0.0 0.0
1.14631948232 0.0 0.0
1.14670111543 0.0 0.0
1.14669902918 0.0 0.0
1.14628836365 0.0 0.0
1.14669980513 0.0 0.0
1.14668773131 0.0 0.0
1.14627468445 0.0 0.0
1.14668282177 0.0 0.0
1.14666631496 0.0 0.0
1.14624954996 0.0 0.0
1.14664913979 0.0 0.0
1.14662207254 0.0 0.0
1.14619812403 0.0 0.0
1.14659436928 0.0 0.0
1.14656934802 0.0 0.0
1.14614106231 0.0 0.0
1.14650005571 0.0 0.0
1.14640386912 0.0 0.0
1.14591248141 0.0 0.0
1.14623136666 0.0 0.0
1.14609327064 0.0 0.0
1.1456020403 0.0 0.0
1.14594434606 0.0 0.0
1.14580896011 0.0 0.0
1.1452720426 0.0 0.0
1.14558388063 0.0 0.0
1.14570263422 0.0 0.0
1.14524037626 0.0 0.0
1.14568840241 0.0 0.0
1.14601899412 0.0 0.0
1.14583738164 0.0 0.0
1.14663668705 0.0 0.0
1.14741811948 0.0 0.0
1.14789676111 0.0 0.0
1.14989513958 0.0 0.0
1.15215736603 0.0 0.0
1.15356527345 0.0 0.0
1.1548633609 0.0 0.0
1.15443609455 0.0 0.0
1.15311625632 0.0 0.0
1.15104365252 0.0 0.0
1.14843440979 0.0 0.0
1.14676862167 0.0 0.0
1.1455665604 0.0 0.0
1.14444081318 0.0 0.0
1.14459908397 0.0 0.0
1.14502559251 0.0 0.0
1.14514115225 0.0 0.0
1.1463529358 0.0 0.0
1.14783067974 0.0 0.0
1.14956716832 0.0 0.0
1.15352142537 0.0 0.0
1.15827748839 0.0 0.0
1.16208185367 0.0 0.0
1.16523493879 0.0 0.0
1.16586678698 0.0 0.0
1.16450635659 0.0 0.0
1.16169191088 0.0 0.0
1.15818561913 0.0 0.0
1.15434256511 0.0 0.0
1.15129840597 0.0 0.0
1.14882847987 0.0 0.0
1.14743924168 0.0 0.0
1.14631534285 0.0 0.0
1.14629360638 0.0 0.0
1.14604344439 0.0 0.0
1.14598678032 0.0 0.0
1.14717566905 0.0 0.0
1.14816136434 0.0 0.0
1.14912247331 0.0 0.0
1.15076124824 0.0 0.0
1.15138105567 0.0 0.0
1.15117526869 0.0 0.0
1.15100016239 0.0 0.0
1.1498943988 0.0 0.0
1.14820552002 0.0 0.0
1.14227464857 0.0 0.0
1.12640439473 0.0 0.0
1.10417011671 0.0 0.0
1.08336499267 0.0 0.0
1.06729243247 0.0 0.0
1.04995134946 0.0 0.0
1.029712541 0.0 0.0
1.01161476084 0.0 0.0
0.9989733819 0.0 0.0
1.0 0.0 0.0
1.0 0.0 0.0
1.0 0.0 0.0
1.0 0.0 0.0
1.0 0.0 0.0
1.0 0.0 0.0
1.0 0.0 0.0
1.0 0.0 0.0
1.0 0.0 0.0
1.1634479219 -0.0663326134723 0.0
1.20595482414 -0.0313943697151 0.0
1.16524670748 -0.00535038880729 0.0
1.16169442516 -0.00163485578406 0.0
1.15849050969 -0.00160605069838 0.0
1.15919081788 0.000867455083265 0.0
1.15905268284 0.000739346857148 0.0
1.16002058859 0.000546545284029 0.0
1.15980234027 0.000508748148088 0.0
1.15977899644 0.000493131972024 0.0
1.15974381996 0.000483381578306 0.0
1.15972353418 0.000467620281002 0.0
1.15972304006 0.000442703853224 0.0
1.15972284331 0.000364856194599 0.0
1.15816121791 3.0080807768e-05 0.0
1.15737431877 -0.000111190811823 0.0
1.15697865839 0.00012179996208 0.0
1.15636763882 0.000912729178878 0.0
1.15629969395 0.00148613239936 0.0
1.14913736718 -0.00142454504507 0.0
1.16387181279 -0.00102498423295 0.0
1.15553848005 0.00183409780224 0.0
1.1625341972 0.00954475257594 0.0
1.1608859435 0.00442614377462 0.0
1.15543965969 0.00339116755861 0.0
1.16257677651 -0.00533725728461 0.0
1.15562332045 0.00191681887782 0.0
1.17136391914 0.0188870661617 0.0
1.15660300873 -0.000641618456363 0.0
1.18014717158 -0.00512507151971 0.0
1.15185708777 -0.00582699660429 0.0
1.15251994263 -0.00694549158546 0.0
1.16348088155 -0.0136998932143 0.0
1.15308209943 -0.00302493246173 0.0
1.20017042393 -0.137241109882 0.0
1.14745333481 -0.00150516928308 0.0
1.14666557621 4.29501636135e-06 0.0
1.17102898162 0.00268843032053 0.0
1.14913124629 0.00253295749058 0.0
1.15259764527 0.00819163996164 0.0
1.15234344424 -0.00330488215322 0.0
1.1538403692 0.000963540841289 0.0
1.14713595287 0.00153557309232 0.0
1.14506004583 0.000520155679409 0.0
1.1585585865 -0.000177243846112 0.0
1.15010884719 0.00384452417062 0.0
1.14768731738 0.000899838735872 0.0
1.14669584054 0.000285944554833 0.0
1.14669561286 3.13869114843e-05 0.0
1.14701188491 -0.000133227323442 0.0
1.14737790147 -0.000318083856269 0.0
1.1476322259 -0.000155023638682 0.0
1.21329151517 -0.0419552250289 0.0
1.14769391373 -5.62726678199e-05 0.0
1.14772544344 -6.40730435691e-05 0.0
1.14774791892 -4.71860151778e-05 0.0
1.14660260643 -0.0213264220512 0.0
1.14776395576 -3.94357518965e-05 0.0
1.14363669325 0.000659469868344 0.0
1.12105211002 -0.0282192372763 0.0
1.14777757359 -2.24888309954e-05 0.0
1.1477451813 4.92791618179e-05 0.0
1.13311971042 -0.00224322747495 0.0
1.14745551807 0.000234637272746 0.0
1.13177462612 -0.00152123560674 0.0
1.12616075491 -0.00137536069465 0.0
1.12718770142 -0.000464499036718 0.0
1.12156620748 0.00908835211587 0.0
1.1246274568 -0.00249777553157 0.0
1.12394621071 0.00533698766388 0.0
1.11816239098 0.0151471355669 0.0
1.12436124955 0.00252610387015 0.0
1.12504255588 0.00227108059486 0.0
1.12671258153 0.00181287833887 0.0
1.12612105871 0.00189865129337 0.0
1.12618208602 0.00665378290528 0.0
1.12981209662 0.00151741626437 0.0
1.13174409964 0.000383843976277 0.0
1.13193810274 0.000243648306812 0.0
1.13188091241 -0.000195657177887 0.0
1.13298472436 -0.000722763654904 0.0
1.13309714151 0.000139686334607 0.0
1.13298301445 0.000198494561445 0.0
1.13295463584 0.000185144317251 0.0
1.13295392306 0.000191294269693 0.0
1.14709696945 -0.000534445821863 0.0
1.13297474672 0.00019802493233 0.0
1.13301478131 0.000218398829993 0.0
1.13305737792 0.000322791310678 0.0
1.13287071124 0.0011573635116 0.0
1.14957334538 -0.00158138566085 0.0
1.03391253556 -0.0338562483847 0.0
1.15131423472 -0.000678669490657 0.0
1.15302276861 -0.00415451487269 0.0
1.16505347146 -0.00505156674112 0.0
1.15232641663 -0.00538244482213 0.0
1.14603578609 -0.00245821123039 0.0
1.09589446004 -0.00726771363114 0.0
1.1217550279 -0.00902666228532 0.0
1.1114904556 -0.0111097912137 0.0
1.10190089168 -0.0162393807457 0.0
1.18298371866 -0.0728362806647 0.0
1.06654197974 -0.00828734068264 0.0
1.15148797168 -0.00122429491756 0.0
1.14578509884 -0.000107444394503 0.0
1.1457564953 3.32486978119e-05 0.0
1.12493579049 -0.0228176605568 0.0
1.14671441872 -6.1380123283e-05 0.0
1.07186419176 -0.025473288668 0.0
1.14631395952 0.000457396351461 0.0
1.14713856423 -1.79996309783e-05 0.0
1.1472693074 2.27191977108e-05 0.0
1.14788921144 0.00153884987918 0.0
1.0307807643 6.25226695528e-05 0.0
1.14731146677 4.49852898601e-05 0.0
1.15551752355 0.00228225793709 0.0
1.14735240295 5.4562249376e-05 0.0
1.14737300913 6.16984214373e-05 0.0
1.14691871791 -0.00517767974551 0.0
1.14738825084 7.21658886037e-05 0.0
1.14734104652 8.57810727553e-05 0.0
1.14716863864 0.000192023994284 0.0
1.01556491761 -0.00173807281164 0.0
1.14421041867 -0.000422695301032 0.0
1.14678248173 0.000119715784481 0.0
1.03754191706 -0.00361772803008 0.0
0.996559968716 0.00136338450641 0.0
1.14759527859 -0.000758117020852 0.0
1.02025306162 -1.12009857643e-05 0.0
1.14541801828 0.000886363051198 0.0
1.15257421244 -0.000477963051044 0.0
1.01979924208 -0.000242885351991 0.0
1.01947643457 -0.000260330066887 0.0
1.01921068071 -0.000249999662848 0.0
1.01897662692 -0.000236488331202 0.0
1.14827964547 0.0030795534313 0.0
1.15016904058 0.00169834966226 0.0
1.01877928185 -0.000224385929461 0.0
1.01858952758 -0.000202250720137 0.0
1.01851943309 -0.000367697084543 0.0
1.01958912863 -0.00124210394114 0.0
1.02008709745 -0.000647252544386 0.0
1.16422211253 0.00557412238788 0.0
1.14616334747 0.000672258131502 0.0
1.01990353523 -0.000466724862715 0.0
1.01933607133 -0.00038455470219 0.0
0.842775744717 0.00221163992946 0.0
1.01644434341 6.00317208693e-07 0.0
0.998131291604 -0.00162530801726 0.0
1.01420378785 0.00102921731855 0.0
1.00268237217 0.004300093164 0.0
1.01047960376 0.0011538468712 0.0
0.999583480366 0.00884105359329 0.0
1.01323901274 7.43058476815e-05 0.0
0.976155106717 0.0197445179493 0.0
1.01259402398 -0.000839640469365 0.0
0.763714547472 0.0011623661852 0.0
0.901009220616 -0.00196628863596 0.0
0.875983822137 -0.00236301245854 0.0
1.15843000724 -0.00343837832076 0.0
1.1463638156 -0.000696484507407 0.0
1.14876394344 -0.00258027208248 0.0
1.16802839603 -0.00147520496011 0.0
1.14769119941 -0.00276865546256 0.0
1.15531320661 -0.00193162207569 0.0
0.98480974569 -0.0137034805611 0.0
1.11202395753 -0.0244894929919 0.0
1.14939118713 -0.00101668074994 0.0
1.04089794211 -0.0553488747109 0.0
1.16119313647 -0.00219238036723 0.0
1.15675598138 0.000122478519149 0.0
1.04060234051 -0.0173863321834 0.0
0.888735670328 0.0029166336103 0.0
1.1022442008 -0.0695733590888 0.0
1.03983131633 -0.0605532315169 0.0
0.943079677833 -0.00599611804514 0.0
1.14579499968 -7.8451972021e-05 0.0
1.14565215691 1.27090200115e-06 0.0
1.14614435654 -9.72395183843e-05 0.0
1.14593687693 0.000217637091945 0.0
1.27510892033 -0.290558117649 0.0
1.14727720874 0.000590501152404 0.0
1.1464431292 -3.35601253435e-05 0.0
1.15230435741 0.00208234498682 0.0
1.14659428356 2.93897623343e-05 0.0
1.14664087054 2.98998655352e-05 0.0
1.1513868316 -0.000813351416367 0.0
1.14482740166 0.000424100884581 0.0
1.09989263097 -0.0146333216613 0.0
1.14730526163 0.00129301238836 0.0
1.15100134907 0.000937688051137 0.0
1.14668036792 4.08329791932e-05 0.0
1.15828742377 0.00442377751465 0.0
1.14691832598 0.00086286912772 0.0
1.13984050146 -0.00809923622018 0.0
1.1460971446 -0.0002373535806 0.0
1.14669950796 4.51932169839e-05 0.0
1.14670972495 5.49349532092e-05 0.0
1.14668097137 8.83135258815e-05 0.0
1.14639832609 0.000160396332655 0.0
1.14617962896 -0.000133180873624 0.0
1.14780188842 -0.000732424664695 0.0
1.15616918996 -0.00729368679867 0.0
0.824707023663 0.00512811351967 0.0
0.841156577193 -0.00989204941079 0.0
0.887134358151 -0.0198986726903 0.0
0.825643072385 0.00383958763866 0.0
0.855849074854 0.0028202167836 0.0
0.85515351145 0.0026103753785 0.0
0.855040896818 0.00255694998346 0.0
1.17563588026 -0.00946367867886 0.0
0.855033683324 0.00253841042492 0.0
0.85506462423 0.00252812698124 0.0
0.855124580818 0.00252017898585 0.0
1.15275218694 0.00174254811174 0.0
1.15536795185 -0.00823262754788 0.0
0.855205518626 0.00252328895547 0.0
1.15502501916 -0.000841102941214 0.0
0.855332672211 0.00247152708316 0.0
0.856518922521 0.00172188480408 0.0
0.858222747785 0.00317602871604 0.0
0.858531023944 0.00334231444065 0.0
1.15383740497 0.00236787419205 0.0
0.858702463323 0.00332538225192 0.0
1.15418571754 0.00200048340598 0.0
0.861700854368 0.00175075752919 0.0
0.857326139529 0.00382138479384 0.0
1.15415716696 0.00193708681788 0.0
0.864044345903 -0.00428456072222 0.0
1.15413146029 0.00191535207395 0.0
0.867293589267 0.000268915094765 0.0
0.850391794686 0.00742280394396 0.0
1.15409818225 0.00190722043216 0.0
0.867738166696 -0.00593799272069 0.0
0.812586336903 0.00133657144675 0.0
1.15407400229 0.00188948640975 0.0
0.842724944243 -0.00594434077564 0.0
1.15406254817 0.001906214708 0.0
1.15409512423 0.00180529013459 0.0
0.859291163449 0.00476208295528 0.0
1.15331178069 0.00118459822331 0.0
1.15232771443 0.0010749029378 0.0
1.15890136479 -0.00411786898285 0.0
0.843016687805 -0.000725499099414 0.0
0.856577620761 0.00352647829983 0.0
1.15178213065 0.00128013640166 0.0
1.15149775232 0.00163944735745 0.0
0.858047185144 -0.00138916764947 0.0
0.840671289705 0.0129504540349 0.0
1.15175370692 0.00241990939821 0.0
0.85994745727 -0.00354664263634 0.0
0.7610172254 0.00283407157378 0.0
1.15356607321 0.0094477175329 0.0
1.16417039542 -0.00219381845629 0.0
0.843349462516 -0.000494418844739 0.0
1.15058155705 -0.0037239710039 0.0
1.15002245082 0.0023811062124 0.0
1.15121396401 0.00314776114027 0.0
1.15786748003 0.00144305155015 0.0
1.15703445734 0.0184228398955 0.0
1.15159391543 0.00238713870957 0.0
1.18066796193 0.00114485471715 0.0
1.15128147052 -0.00180349309786 0.0
1.15092570931 -0.00297129588041 0.0
1.18557340273 -0.0194027615734 0.0
1.19083087606 -0.0397337760432 0.0
1.17887115999 -0.0461768673367 0.0
1.15107880205 -0.00014349026304 0.0
1.17122623127 -0.0115983264489 0.0
1.15859568712 -0.00370298902543 0.0
1.15059856928 0.00138447042992 0.0
1.17695130458 0.00820740144739 0.0
1.15329242625 0.00599489253565 0.0
1.15102343538 0.00846957146215 0.0
1.15849466291 0.00221694969571 0.0
1.15086205829 0.000648996371291 0.0
0.864615056466 0.00332857257417 0.0
1.14924205605 0.000217054666729 0.0
0.868894412484 0.00270320153966 0.0
0.805253316218 0.00652245112158 0.0
0.832693753835 -0.00226858042902 0.0
1.1635334769 0.00169311469023 0.0
0.86251811923 0.00637628691737 0.0
0.86405586241 0.000310086585385 0.0
1.15160744564 0.00281046002279 0.0
1.1516996355 -0.000165091471651 0.0
0.850114815891 0.0035417268332 0.0
0.87002442495 -0.00285511680316 0.0
1.15193416978 -0.00126660821361 0.0
1.14629495274 4.34081229219e-05 0.0
1.15215161847 -0.00150074508431 0.0
1.15232323054 -0.00225435315333 0.0
0.845942060703 0.00411760199088 0.0
1.1538585112 -0.00272946329486 0.0
1.15412189551 -0.0024053061915 0.0
1.15412783295 -0.00233134778883 0.0
1.1541654092 -0.00233921499964 0.0
1.15421808737 -0.00233411449156 0.0
1.15427363675 -0.00233141812686 0.0
1.15437164585 -0.0023283470601 0.0
1.15330814651 -0.00344724282034 0.0
1.15426746858 -0.0021838787525 0.0
1.15387474752 -0.00204049871923 0.0
1.15654604798 -0.00427789419452 0.0
1.1451008141 -0.000827924082624 0.0
1.14665263086 1.75369050115e-05 0.0
0.842602600252 -0.000201333690124 0.0
0.861479576702 -0.00283463593577 0.0
0.864330391309 -0.00380935331897 0.0
0.864764838206 -0.00409203122003 0.0
0.864544042237 -0.00417629301583 0.0
1.14672926566 -5.59413905529e-05 0.0
0.864568560541 -0.0037864257135 0.0
0.862030677484 -0.00386726268084 0.0
0.861537200771 -0.00344676270145 0.0
0.861467779371 -0.00343908785328 0.0
0.861407553584 -0.00344432237085 0.0
0.861382703679 -0.00344631695351 0.0
1.1467264142 -6.47353899799e-05 0.0
0.861391377752 -0.00344659776482 0.0
0.861451067237 -0.00343204608682 0.0
0.861651437182 -0.00335303685745 0.0
0.867725386008 -0.00110756480185 0.0
1.14670968056 -6.84324460783e-05 0.0
1.14668095646 -7.54327233644e-05 0.0
1.15110051057 -0.00255807872842 0.0
1.14662953223 -7.36950134113e-05 0.0
1.16499080578 -0.00218617797574 0.0
1.14410111819 -0.00221566259459 0.0
1.14654677235 -0.000117667832126 0.0
1.00667669853 -0.0134150094624 0.0
1.07934387077 -0.0147178031846 0.0
1.14646540742 -0.000481149896216 0.0
1.14634129169 -0.000146826858184 0.0
1.21366685506 -0.09435137918 0.0
1.14599198112 -7.80680661603e-05 0.0
1.14544017092 -3.07126797832e-05 0.0
1.15291125065 -0.00192718141011 0.0
1.14550552523 8.50155109058e-05 0.0
1.14640925667 0.000350830878598 0.0
1.15047826414 -0.000310755962526 0.0
1.14917925751 0.00138740495884 0.0
1.15506748236 0.000242669203402 0.0
1.12595357158 -0.0136116347981 0.0
1.14906564534 -0.00124778356171 0.0
1.14421284833 4.81566959528e-05 0.0
1.16524083027 0.00144195778193 0.0
1.14674220966 -0.000663812550856 0.0
1.14592839156 0.000677907731506 0.0
1.15164375437 0.000271821995512 0.0
1.14835208901 7.43634940113e-05 0.0
1.14828218426 -1.45423443487e-05 0.0
1.14640138119 -0.00122001164329 0.0
1.14837735054 8.15757730803e-05 0.0
1.14774085208 -0.000225098852351 0.0