# vtk DataFile Version 2.0
2D Simulation Python
ASCII
DATASET UNSTRUCTURED_GRID
FIELD FieldData 1
NODES 1 2 int
2790 1289

POINTS 2790 double
0.0 1.0 0.0
1.725 1.0 0.0
8.275 1.0 0.0
20.0 1.0 0.0
20.0 0.0 0.0
0.0 0.0 0.0
0.1916666666663293 1.0 0.0
0.3833333333324708 1.0 0.0
0.574999999998553 1.0 0.0
0.7666666666645966 1.0 0.0
0.9583333333312576 1.0 0.0
1.149999999998384 1.0 0.0
1.341666666665662 1.0 0.0
1.533333333332819 1.0 0.0
0.0958333333331406 1.0 0.0
0.2874999999994247 1.0 0.0
0.4791666666655395 1.0 0.0
0.6708333333315728 1.0 0.0
0.8624999999976626 1.0 0.0
1.054166666664886 1.0 0.0
1.245833333332057 1.0 0.0
1.437499999999343 1.0 0.0
1.629166666666455 1.0 0.0
1.92348484848444 1.0 0.0
2.121969696968978 1.0 0.0
2.320454545453434 1.0 0.0
2.518939393937826 1.0 0.0
2.717424242422235 1.0 0.0
2.915909090906411 1.0 0.0
3.1143939393908 1.0 0.0
3.312878787875129 1.0 0.0
3.511363636359531 1.0 0.0
3.709848484843827 1.0 0.0
3.90833333332816 1.0 0.0
4.106818181812215 1.0 0.0
4.305303030296804 1.0 0.0
4.503787878781365 1.0 0.0
4.702272727265711 1.0 0.0
4.900757575750005 1.0 0.0
5.099242424235156 1.0 0.0
5.297727272720327 1.0 0.0
5.496212121205663 1.0 0.0
5.694696969690998 1.0 0.0
5.89318181817668 1.0 0.0
6.09166666666213 1.0 0.0
6.290151515147423 1.0 0.0
6.488636363633031 1.0 0.0
6.687121212118713 1.0 0.0
6.885606060604342 1.0 0.0
7.084090909089381 1.0 0.0
7.282575757574369 1.0 0.0
7.481060606059355 1.0 0.0
7.679545454544343 1.0 0.0
7.878030303029329 1.0 0.0
8.076515151514705 1.0 0.0
1.824242424242199 1.0 0.0
2.022727272726695 1.0 0.0
2.221212121211181 1.0 0.0
2.41969696969563 1.0 0.0
2.618181818180092 1.0 0.0
2.816666666664316 1.0 0.0
3.015151515148624 1.0 0.0
3.213636363633039 1.0 0.0
3.412121212117267 1.0 0.0
3.610606060601583 1.0 0.0
3.809090909085975 1.0 0.0
4.007575757570153 1.0 0.0
4.206060606054539 1.0 0.0
4.404545454539001 1.0 0.0
4.603030303023853 1.0 0.0
4.801515151507715 1.0 0.0
4.999999999992074 1.0 0.0
5.198484848477777 1.0 0.0
5.396969696963081 1.0 0.0
5.595454545448261 1.0 0.0
5.793939393933949 1.0 0.0
5.992424242419331 1.0 0.0
6.190909090904785 1.0 0.0
6.389393939390224 1.0 0.0
6.587878787875795 1.0 0.0
6.786363636361617 1.0 0.0
6.984848484846598 1.0 0.0
7.183333333331875 1.0 0.0
7.381818181816625 1.0 0.0
7.580303030301849 1.0 0.0
7.778787878786936 1.0 0.0
7.977272727272114 1.0 0.0
8.175757575757618 1.0 0.0
8.473728813558951 1.0 0.0
8.672457627118133 1.0 0.0
8.871186440676855 1.0 0.0
9.069915254236154 1.0 0.0
9.268644067794812 1.0 0.0
9.467372881354057 1.0 0.0
9.666101694912944 1.0 0.0
9.864830508471961 1.0 0.0
10.06355932203108 1.0 0.0
10.26228813558986 1.0 0.0
10.46101694914916 1.0 0.0
10.65974576270777 1.0 0.0
10.85847457626706 1.0 0.0
11.05720338982589 1.0 0.0
11.25593220338497 1.0 0.0
11.45466101694402 1.0 0.0
11.65338983050287 1.0 0.0
11.85211864406215 1.0 0.0
12.05084745762035 1.0 0.0
12.24957627117938 1.0 0.0
12.44830508473794 1.0 0.0
12.64703389829659 1.0 0.0
12.84576271185557 1.0 0.0
13.04449152541379 1.0 0.0
13.24322033897301 1.0 0.0
13.44194915253121 1.0 0.0
13.6406779660903 1.0 0.0
13.83940677964874 1.0 0.0
14.03813559320751 1.0 0.0
14.23686440676681 1.0 0.0
14.43559322032663 1.0 0.0
14.63432203388679 1.0 0.0
14.8330508474463 1.0 0.0
15.0317796610067 1.0 0.0
15.23050847456608 1.0 0.0
15.42923728812645 1.0 0.0
15.62796610168606 1.0 0.0
15.82669491524602 1.0 0.0
16.02542372880584 1.0 0.0
16.22415254236431 1.0 0.0
16.42288135592496 1.0 0.0
16.62161016948498 1.0 0.0
16.82033898304518 1.0 0.0
17.01906779660567 1.0 0.0
17.2177966101654 1.0 0.0
17.41652542372565 1.0 0.0
17.61525423728425 1.0 0.0
17.81398305084494 1.0 0.0
18.01271186440355 1.0 0.0
18.21144067796387 1.0 0.0
18.41016949152309 1.0 0.0
18.6088983050827 1.0 0.0
18.80762711864282 1.0 0.0
19.00635593220153 1.0 0.0
19.20508474576211 1.0 0.0
19.40381355932072 1.0 0.0
19.60254237288117 1.0 0.0
19.80127118644013 1.0 0.0
8.374364406779554 1.0 0.0
8.573093220338519 1.0 0.0
8.771822033897509 1.0 0.0
8.970550847456504 1.0 0.0
9.169279661015429 1.0 0.0
9.368008474574502 1.0 0.0
9.566737288133496 1.0 0.0
9.765466101692677 1.0 0.0
9.964194915251602 1.0 0.0
10.16292372881015 1.0 0.0
10.36165254236967 1.0 0.0
10.56038135592849 1.0 0.0
10.75911016948728 1.0 0.0
10.95783898304648 1.0 0.0
11.15656779660554 1.0 0.0
11.35529661016447 1.0 0.0
11.55402542372345 1.0 0.0
11.75275423728253 1.0 0.0
11.95148305084111 1.0 0.0
12.15021186439983 1.0 0.0
12.34894067795883 1.0 0.0
12.54766949151722 1.0 0.0
12.74639830507616 1.0 0.0
12.94512711863486 1.0 0.0
13.14385593219357 1.0 0.0
13.34258474575207 1.0 0.0
13.54131355931069 1.0 0.0
13.7400423728695 1.0 0.0
13.93877118642822 1.0 0.0
14.13749999998697 1.0 0.0
14.33622881354686 1.0 0.0
14.53495762710678 1.0 0.0
14.73368644066656 1.0 0.0
14.93241525422655 1.0 0.0
15.13114406778625 1.0 0.0
15.32987288134641 1.0 0.0
15.52860169490635 1.0 0.0
15.7273305084661 1.0 0.0
15.9260593220261 1.0 0.0
16.12478813558534 1.0 0.0
16.32351694914468 1.0 0.0
16.52224576270527 1.0 0.0
16.72097457626511 1.0 0.0
16.91970338982543 1.0 0.0
17.11843220338561 1.0 0.0
17.31716101694539 1.0 0.0
17.51588983050497 1.0 0.0
17.71461864406449 1.0 0.0
17.91334745762401 1.0 0.0
18.11207627118383 1.0 0.0
18.31080508474307 1.0 0.0
18.50953389830311 1.0 0.0
18.70826271186271 1.0 0.0
18.90699152542239 1.0 0.0
19.10572033898203 1.0 0.0
19.30444915254171 1.0 0.0
19.50317796610107 1.0 0.0
19.70190677966065 1.0 0.0
19.90063559322003 1.0 0.0
20.0 0.7999999999999998 0.0
20.0 0.6000000000013869 0.0
20.0 0.4000000000016644 0.0
20.0 0.2000000000008322 0.0
20.0 0.9000000000000369 0.0
20.0 0.7000000000005904 0.0
20.0 0.5000000000017577 0.0
20.0 0.3000000000012483 0.0
20.0 0.1000000000004161 0.0
19.8 0.0 0.0
19.6 0.0 0.0
19.4 0.0 0.0
19.2 0.0 0.0
19.0 0.0 0.0
18.8 0.0 0.0
18.6 0.0 0.0
18.4 0.0 0.0
18.2 0.0 0.0
18.0 0.0 0.0
17.8 0.0 0.0
17.59999999999999 0.0 0.0
17.4 0.0 0.0
17.2 0.0 0.0
16.99999999999999 0.0 0.0
16.79999999999999 0.0 0.0
16.59999999999999 0.0 0.0
16.4 0.0 0.0
16.2 0.0 0.0
15.99999999999999 0.0 0.0
15.79999999999999 0.0 0.0
15.59999999999999 0.0 0.0
15.4 0.0 0.0
15.2 0.0 0.0
15.0 0.0 0.0
14.79999999999999 0.0 0.0
14.59999999999999 0.0 0.0
14.4 0.0 0.0
14.2 0.0 0.0
13.99999999999999 0.0 0.0
13.8 0.0 0.0
13.59999999999999 0.0 0.0
13.4 0.0 0.0
13.2 0.0 0.0
13.0 0.0 0.0
12.79999999999999 0.0 0.0
12.6 0.0 0.0
12.4 0.0 0.0
12.2 0.0 0.0
11.99999999999999 0.0 0.0
11.8 0.0 0.0
11.6 0.0 0.0
11.4 0.0 0.0
11.2 0.0 0.0
11.0 0.0 0.0
10.8 0.0 0.0
10.6 0.0 0.0
10.4 0.0 0.0
10.2 0.0 0.0
9.999999999999998 0.0 0.0
9.799999999999995 0.0 0.0
9.599999999999998 0.0 0.0
9.399999999999997 0.0 0.0
9.199999999999998 0.0 0.0
8.999999999999996 0.0 0.0
8.799999999999997 0.0 0.0
8.599999999999996 0.0 0.0
8.399999999999999 0.0 0.0
8.199999999999996 0.0 0.0
7.999999999999998 0.0 0.0
7.799999999999997 0.0 0.0
7.599999999999998 0.0 0.0
7.399999999999999 0.0 0.0
7.199999999999998 0.0 0.0
6.999999999999995 0.0 0.0
6.799999999999995 0.0 0.0
6.599999999999998 0.0 0.0
6.399999999999997 0.0 0.0
6.199999999999996 0.0 0.0
5.999999999999998 0.0 0.0
5.799999999999999 0.0 0.0
5.599999999999996 0.0 0.0
5.399999999999995 0.0 0.0
5.199999999999996 0.0 0.0
4.999999999999998 0.0 0.0
4.799999999999997 0.0 0.0
4.599999999999998 0.0 0.0
4.399999999999999 0.0 0.0
4.199999999999999 0.0 0.0
3.999999999999996 0.0 0.0
3.799999999999997 0.0 0.0
3.599999999999998 0.0 0.0
3.399999999999999 0.0 0.0
3.199999999999999 0.0 0.0
3.0 0.0 0.0
2.800000000000001 0.0 0.0
2.599999999999998 0.0 0.0
2.399999999999999 0.0 0.0
2.199999999999996 0.0 0.0
1.999999999999996 0.0 0.0
1.800000000000001 0.0 0.0
1.599999999999998 0.0 0.0
1.399999999999999 0.0 0.0
1.200000000000003 0.0 0.0
1.0 0.0 0.0
0.7999999999999972 0.0 0.0
0.5999999999999979 0.0 0.0
0.3999999999999986 0.0 0.0
0.1999999999999993 0.0 0.0
19.90000000000022 0.0 0.0
19.69999999999997 0.0 0.0
19.49999999999987 0.0 0.0
19.30000000000005 0.0 0.0
19.09999999999999 0.0 0.0
18.89999999999987 0.0 0.0
18.7 0.0 0.0
18.49999999999999 0.0 0.0
18.30000000000001 0.0 0.0
18.09999999999987 0.0 0.0
17.90000000000013 0.0 0.0
17.7 0.0 0.0
17.49999999999987 0.0 0.0
17.30000000000025 0.0 0.0
17.10000000000001 0.0 0.0
16.90000000000005 0.0 0.0
16.70000000000003 0.0 0.0
16.50000000000006 0.0 0.0
16.29999999999997 0.0 0.0
16.09999999999999 0.0 0.0
15.89999999999987 0.0 0.0
15.69999999999999 0.0 0.0
15.49999999999999 0.0 0.0
15.3 0.0 0.0
15.10000000000003 0.0 0.0
14.90000000000005 0.0 0.0
14.69999999999992 0.0 0.0
14.49999999999996 0.0 0.0
14.29999999999999 0.0 0.0
14.10000000000008 0.0 0.0
13.89999999999988 0.0 0.0
13.70000000000003 0.0 0.0
13.50000000000004 0.0 0.0
13.29999999999992 0.0 0.0
13.09999999999995 0.0 0.0
12.90000000000016 0.0 0.0
12.7 0.0 0.0
12.49999999999986 0.0 0.0
12.30000000000003 0.0 0.0
12.10000000000016 0.0 0.0
11.90000000000005 0.0 0.0
11.69999999999994 0.0 0.0
11.49999999999993 0.0 0.0
11.30000000000005 0.0 0.0
11.0999999999999 0.0 0.0
10.90000000000004 0.0 0.0
10.69999999999995 0.0 0.0
10.50000000000012 0.0 0.0
10.29999999999999 0.0 0.0
10.09999999999993 0.0 0.0
9.900000000000077 0.0 0.0
9.699999999999969 0.0 0.0
9.499999999999982 0.0 0.0
9.299999999999969 0.0 0.0
9.100000000000108 0.0 0.0
8.899999999999972 0.0 0.0
8.699999999999958 0.0 0.0
8.499999999999998 0.0 0.0
8.30000000000003 0.0 0.0
8.099999999999977 0.0 0.0
7.899999999999974 0.0 0.0
7.700000000000166 0.0 0.0
7.499999999999854 0.0 0.0
7.299999999999997 0.0 0.0
7.100000000000019 0.0 0.0
6.900000000000002 0.0 0.0
6.699999999999974 0.0 0.0
6.500000000000037 0.0 0.0
6.299999999999981 0.0 0.0
6.100000000000014 0.0 0.0
5.899999999999949 0.0 0.0
5.700000000000049 0.0 0.0
5.499999999999956 0.0 0.0
5.300000000000118 0.0 0.0
5.100000000000005 0.0 0.0
4.900000000000109 0.0 0.0
4.699999999999982 0.0 0.0
4.499999999999936 0.0 0.0
4.300000000000137 0.0 0.0
4.100000000000012 0.0 0.0
3.899999999999888 0.0 0.0
3.69999999999974 0.0 0.0
3.500000000000046 0.0 0.0
3.299999999999965 0.0 0.0
3.099999999999817 0.0 0.0
2.900000000000066 0.0 0.0
2.699999999999793 0.0 0.0
2.500000000000064 0.0 0.0
2.299999999999823 0.0 0.0
[...]
POINT_DATA 2790
VECTORS vector double
1.0 0.0 0.0
0.0 0.0 0.0
0.0 0.0 0.0
0.0 0.0 0.0
1.56343370744 0.0 0.0
1.0 0.0 0.0
0.0 0.0 0.0
0.0 0.0 0.0
0.0 0.0 0.0
0.0 0.0 0.0
0.0 0.0 0.0
0.0 0.0 0.0
0.0 0.0 0.0
0.0 0.0 0.0
0.0 0.0 0.0
0.0 0.0 0.0
0.0 0.0 0.0
0.0 0.0 0.0
0.0 0.0 0.0
0.0 0.0 0.0
0.0 0.0 0.0
0.0 0.0 0.0
0.0 0.0 0.0
0.0 0.0 0.0
0.0 0.0 0.0
0.0 0.0 0.0
0.0 0.0 0.0
0.0 0.0 0.0
0.0 0.0 0.0
0.0 0.0 0.0
0.0 0.0 0.0
0.0 0.0 0.0
0.0 0.0 0.0
0.0 0.0 0.0
0.0 0.0 0.0
0.0 0.0 0.0
0.0 0.0 0.0
0.0 0.0 0.0
0.0 0.0 0.0
0.0 0.0 0.0
0.0 0.0 0.0
0.0 0.0 0.0
0.0 0.0 0.0
0.0 0.0 0.0
0.0 0.0 0.0
0.0 0.0 0.0
0.0 0.0 0.0
0.0 0.0 0.0
0.0 0.0 0.0
0.0 0.0 0.0
0.0 0.0 0.0
0.0 0.0 0.0
0.0 0.0 0.0
0.0 0.0 0.0
0.0 0.0 0.0
0.0 0.0 0.0
0.0 0.0 0.0
0.0 0.0 0.0
0.0 0.0 0.0
0.0 0.0 0.0
0.0 0.0 0.0
0.0 0.0 0.0
0.0 0.0 0.0
0.0 0.0 0.0
0.0 0.0 0.0
0.0 0.0 0.0
0.0 0.0 0.0
0.0 0.0 0.0
0.0 0.0 0.0
0.0 0.0 0.0
0.0 0.0 0.0
0.0 0.0 0.0
0.0 0.0 0.0
0.0 0.0 0.0
0.0 0.0 0.0
0.0 0.0 0.0
0.0 0.0 0.0
0.0 0.0 0.0
0.0 0.0 0.0
0.0 0.0 0.0
0.0 0.0 0.0
0.0 0.0 0.0
0.0 0.0 0.0
0.0 0.0 0.0
0.0 0.0 0.0
0.0 0.0 0.0
0.0 0.0 0.0
0.0 0.0 0.0
0.0 0.0 0.0
0.0 0.0 0.0
0.0 0.0 0.0
0.0 0.0 0.0
0.0 0.0 0.0
0.0 0.0 0.0
0.0 0.0 0.0
0.0 0.0 0.0
0.0 0.0 0.0
0.0 0.0 0.0
0.0 0.0 0.0
0.0 0.0 0.0
0.0 0.0 0.0
0.0 0.0 0.0
0.0 0.0 0.0
0.0 0.0 0.0
0.0 0.0 0.0
0.0 0.0 0.0
0.0 0.0 0.0
0.0 0.0 0.0
0.0 0.0 0.0
0.0 0.0 0.0
0.0 0.0 0.0
0.0 0.0 0.0
0.0 0.0 0.0
0.0 0.0 0.0
0.0 0.0 0.0
0.0 0.0 0.0
0.0 0.0 0.0
0.0 0.0 0.0
0.0 0.0 0.0
0.0 0.0 0.0
0.0 0.0 0.0
0.0 0.0 0.0
0.0 0.0 0.0
0.0 0.0 0.0
0.0 0.0 0.0
0.0 0.0 0.0
0.0 0.0 0.0
0.0 0.0 0.0
0.0 0.0 0.0
0.0 0.0 0.0
0.0 0.0 0.0
0.0 0.0 0.0
0.0 0.0 0.0
0.0 0.0 0.0
0.0 0.0 0.0
0.0 0.0 0.0
0.0 0.0 0.0
0.0 0.0 0.0
0.0 0.0 0.0
0.0 0.0 0.0
0.0 0.0 0.0
0.0 0.0 0.0
0.0 0.0 0.0
0.0 0.0 0.0
0.0 0.0 0.0
0.0 0.0 0.0
0.0 0.0 0.0
0.0 0.0 0.0
0.0 0.0 0.0
0.0 0.0 0.0
0.0 0.0 0.0
0.0 0.0 0.0
0.0 0.0 0.0
0.0 0.0 0.0
0.0 0.0 0.0
0.0 0.0 0.0
0.0 0.0 0.0
0.0 0.0 0.0
0.0 0.0 0.0
0.0 0.0 0.0
0.0 0.0 0.0
0.0 0.0 0.0
0.0 0.0 0.0
0.0 0.0 0.0
0.0 0.0 0.0
0.0 0.0 0.0
0.0 0.0 0.0
0.0 0.0 0.0
0.0 0.0 0.0
0.0 0.0 0.0
0.0 0.0 0.0
0.0 0.0 0.0
0.0 0.0 0.0
0.0 0.0 0.0
0.0 0.0 0.0
0.0 0.0 0.0
0.0 0.0 0.0
0.0 0.0 0.0
0.0 0.0 0.0
0.0 0.0 0.0
0.0 0.0 0.0
0.0 0.0 0.0
0.0 0.0 0.0
0.0 0.0 0.0
0.0 0.0 0.0
0.0 0.0 0.0
0.0 0.0 0.0
0.0 0.0 0.0
0.0 0.0 0.0
0.0 0.0 0.0
0.0 0.0 0.0
0.0 0.0 0.0
0.0 0.0 0.0
0.0 0.0 0.0
0.0 0.0 0.0
0.0 0.0 0.0
0.0 0.0 0.0
0.0 0.0 0.0
0.0 0.0 0.0
0.0 0.0 0.0
0.0 0.0 0.0
0.0 0.0 0.0
0.0 0.0 0.0
0.0 0.0 0.0
0.0 0.0 0.0
0.550919092156 3.47452314798e-05 0.0
0.966629113261 8.99334692156e-05 0.0
1.25298907313 -0.000135252360025 0.0
1.43599374866 -0.000260461488957 0.0
0.28229940062 -5.70905321449e-05 0.0
0.763931524865 0.0011898432418 0.0
1.11422110479 -5.30865683821e-07 0.0
1.34653868577 -0.000713773101141 0.0
1.49855590073 -0.00017784328145 0.0
1.56286913798 0.0 0.0
1.56329022507 0.0 0.0
1.56360847422 0.0 0.0
1.56410783747 0.0 0.0
1.56348659336 0.0 0.0
1.56443557641 0.0 0.0
1.56458291366 0.0 0.0
1.56399757388 0.0 0.0
1.56450100464 0.0 0.0
1.56442844072 0.0 0.0
1.56359541944 0.0 0.0
1.56367665827 0.0 0.0
1.56291128128 0.0 0.0
1.5611619583 0.0 0.0
1.55887925095 0.0 0.0
1.55706760887 0.0 0.0
1.55608427919 0.0 0.0
1.55322913369 0.0 0.0
1.55097470613 0.0 0.0
1.54980128838 0.0 0.0
1.54681788095 0.0 0.0
1.54453642052 0.0 0.0
1.54331546389 0.0 0.0
1.54020148019 0.0 0.0
1.53774867562 0.0 0.0
1.53634403756 0.0 0.0
1.53299017317 0.0 0.0
1.53027017177 0.0 0.0
1.5286182168 0.0 0.0
1.52497307281 0.0 0.0
1.52193634624 0.0 0.0
1.51999472043 0.0 0.0
1.51602430086 0.0 0.0
1.51264265968 0.0 0.0
1.51038488684 0.0 0.0
1.50605604396 0.0 0.0
1.50232665652 0.0 0.0
1.49975943616 0.0 0.0
1.49475087215 0.0 0.0
1.49043679589 0.0 0.0
1.48757164422 0.0 0.0
1.48267880608 0.0 0.0
1.47810648314 0.0 0.0
1.47494418572 0.0 0.0
1.46973801859 0.0 0.0
1.46486163404 0.0 0.0
1.46142422735 0.0 0.0
1.45590509985 0.0 0.0
1.45082733285 0.0 0.0
1.44713344338 0.0 0.0
1.44129349087 0.0 0.0
1.43596987326 0.0 0.0
1.43203735649 0.0 0.0
1.42900782603 0.0 0.0
1.42231002198 0.0 0.0
1.41570831715 0.0 0.0
1.41000501978 0.0 0.0
1.40523062861 0.0 0.0
1.39905912481 0.0 0.0
1.39325986716 0.0 0.0
1.38883944493 0.0 0.0
1.38231372399 0.0 0.0
1.37612487852 0.0 0.0
1.37143911209 0.0 0.0
1.36460749636 0.0 0.0
1.35814966043 0.0 0.0
1.35318941831 0.0 0.0
1.34605283705 0.0 0.0
1.33932146313 0.0 0.0
1.33385810899 0.0 0.0
1.32879882567 0.0 0.0
1.32034509304 0.0 0.0
1.31339574937 0.0 0.0
1.30571180737 0.0 0.0
1.29724936726 0.0 0.0
1.29019697638 0.0 0.0
1.28097801553 0.0 0.0
1.27208496343 0.0 0.0
1.26405984566 0.0 0.0
1.25613226329 0.0 0.0
1.24692573887 0.0 0.0
1.23820703445 0.0 0.0
1.22942155449 0.0 0.0
1.21967076176 0.0 0.0
1.21008483522 0.0 0.0
1.20025088941 0.0 0.0
1.18977877771 0.0 0.0
1.17912855779 0.0 0.0
1.16791791131 0.0 0.0
1.15629766413 0.0 0.0
1.14400472836 0.0 0.0
1.13058603259 0.0 0.0
1.11630890285 0.0 0.0
1.1006555265 0.0 0.0
1.0827225076 0.0 0.0
1.0628846416 0.0 0.0
1.04167693245 0.0 0.0
1.0194663768 0.0 0.0
1.00319343403 0.0 0.0
1.56312483727 0.0 0.0
1.5626074627 0.0 0.0
1.56406965592 0.0 0.0
1.56291055722 0.0 0.0
1.56306638366 0.0 0.0
1.56353157415 0.0 0.0
1.56513091903 0.0 0.0
1.56372706219 0.0 0.0
1.56363205667 0.0 0.0
1.56503806349 0.0 0.0
1.56341882039 0.0 0.0
1.5629969535 0.0 0.0
1.56383522733 0.0 0.0
1.56136891672 0.0 0.0
1.5600029524 0.0 0.0
1.55728396242 0.0 0.0
1.55663237491 0.0 0.0
1.55460296591 0.0 0.0
1.55127036665 0.0 0.0
1.55039658609 0.0 0.0
1.54825086094 0.0 0.0
1.54484117842 0.0 0.0
1.54394051568 0.0 0.0
1.5417007486 0.0 0.0
1.53812142149 0.0 0.0
1.53705544848 0.0 0.0
1.53458807234 0.0 0.0
1.53074018068 0.0 0.0
1.5294395941 0.0 0.0
1.52668868328 0.0 0.0
1.52252141443 0.0 0.0
1.52094320668 0.0 0.0
1.51787190191 0.0 0.0
1.5133520086 0.0 0.0
1.51146863539 0.0 0.0
1.50806610899 0.0 0.0
1.50323048534 0.0 0.0
1.5009597262 0.0 0.0
1.49708637499 0.0 0.0
1.49162517193 0.0 0.0
1.48855566974 0.0 0.0
1.48512545003 0.0 0.0
1.47942142851 0.0 0.0
1.47605398597 0.0 0.0
1.47232128617 0.0 0.0
1.46629573852 0.0 0.0
1.46266083561 0.0 0.0
1.45862548873 0.0 0.0
1.4523541016 0.0 0.0
1.4484879294 0.0 0.0
1.44418853993 0.0 0.0
1.43764199358 0.0 0.0
1.43357493032 0.0 0.0
1.4292308571 0.0 0.0
1.42473129024 0.0 0.0
1.41864822193 0.0 0.0
1.41185049202 0.0 0.0
1.40720681335 0.0 0.0
1.4021037444 0.0 0.0
1.39529809249 0.0 0.0
1.39057540778 0.0 0.0
1.38557793691 0.0 0.0
1.37821874572 0.0 0.0
1.3732922385 0.0 0.0
1.36799640805 0.0 0.0
1.36039820062 0.0 0.0
1.35518900853 0.0 0.0
1.34959255142 0.0 0.0
1.34179885068 0.0 0.0
1.33621100327 0.0 0.0
1.33008211833 0.0 0.0
1.32362692954 0.0 0.0
1.31622249646 0.0 0.0
1.30890352723 0.0 0.0
1.30092443423 0.0 0.0
1.29314940761 0.0 0.0
1.28429723183 0.0 0.0
1.2761211826 0.0 0.0
1.26756839127 0.0 0.0
1.25999129307 0.0 0.0
1.25102320243 0.0 0.0
1.24213462252 0.0 0.0
1.23365894962 0.0 0.0
1.22414177168 0.0 0.0
1.21459902605 0.0 0.0
1.20500761511 0.0 0.0
1.1947535833 0.0 0.0
1.1843676794 0.0 0.0
1.17338264068 0.0 0.0
1.16201568435 0.0 0.0
1.15024526948 0.0 0.0
1.13721271121 0.0 0.0
1.12352234504 0.0 0.0
1.10874269399 0.0 0.0
1.09163647664 0.0 0.0
1.0728061004 0.0 0.0
1.05253865399 0.0 0.0
1.03021736833 0.0 0.0
1.01033572088 0.0 0.0
0.999429138186 0.0 0.0
1.0 0.0 0.0
1.0 0.0 0.0
1.0 0.0 0.0
1.0 0.0 0.0
1.0 0.0 0.0
1.0 0.0 0.0
1.0 0.0 0.0
1.0 0.0 0.0
1.0 0.0 0.0
1.17428151966 -0.0689483190109 0.0
1.22493175135 -0.0446306278235 0.0
1.22409133041 -0.0307316120952 0.0
1.07246763634 0.000130582039983 0.0
1.10949761406 1.58255403215e-05 0.0
1.10842975534 -2.34544027977e-05 0.0
1.1055739087 -0.000172623353808 0.0
1.10427247745 -0.000621755335028 0.0
1.10565679458 -0.00107539665697 0.0
1.1071543972 -0.00133716233215 0.0
1.10879000633 -0.00149180983109 0.0
1.11062131395 -0.00163319194752 0.0
1.11271707009 -0.00180432516831 0.0
1.11511715375 -0.00201900343453 0.0
1.11785773751 -0.00226551633396 0.0
1.07173826571 -0.0022990001921 0.0
1.07562142056 -0.00250488913481 0.0
1.07994169309 -0.00279248036829 0.0
1.0846319577 -0.00308436845534 0.0
1.14325407365 -0.00439596148794 0.0
1.21310723973 -0.0226475696625 0.0
1.11285780073 -0.00441202016396 0.0
1.08973038325 -0.00328170336076 0.0
1.19723382462 -0.0173681408263 0.0
1.12053976516 -0.00491475069591 0.0
1.13311687863 -0.00392003784202 0.0
1.18200256123 -0.0136886354041 0.0
1.12934150138 -0.00533697897631 0.0
1.16819335887 -0.0111678272302 0.0
1.16928517194 -0.00672271689179 0.0
1.18162772625 -0.0104639894322 0.0
1.13996698141 -0.00436581610256 0.0
1.15666949325 -0.00986791943362 0.0
0.865007196481 -0.000440322171532 0.0
1.21903715838 -0.17051879632 0.0
1.29074780717 -0.0110000965429 0.0
1.27983856739 -0.012886525799 0.0
1.30670341076 -0.00737577854089 0.0
1.26677618033 -0.0152647641357 0.0
1.306592293 -0.00661012277074 0.0
1.22003967209 -0.021929678821 0.0
1.24777838675 -0.0182217226682 0.0
1.30825703816 -0.00607545315237 0.0
1.30935444196 -0.0055431927037 0.0
1.31106688839 -0.00476797957243 0.0
1.31158078662 -0.00442899827878 0.0
1.31175910464 -0.0041385891386 0.0
1.31180904966 -0.00376507517364 0.0
1.31167072983 -0.00342076265965 0.0
1.30202709188 -0.00311218782858 0.0
1.30160153464 -0.00274378266296 0.0
1.30130925538 -0.00245127887125 0.0
1.19719331393 -0.0548007944805 0.0
1.30097282311 -0.00220050848366 0.0
1.30074322571 -0.00199618114397 0.0
1.30059549162 -0.00182517480808 0.0
1.17965476671 -0.0272807834321 0.0
1.30038012124 -0.00165137789574 0.0
1.12008427417 -0.0281433299027 0.0
1.13221092326 -0.036881129406 0.0
1.2979915242 -0.00127141378381 0.0
1.29734300712 -0.000725082156101 0.0
0.821260422283 -0.000128914069397 0.0
1.29675550937 -0.000138261140164 0.0
0.820880981885 -0.000200611769652 0.0
0.949279266434 -0.00686657805314 0.0
0.969297124094 -0.00814436979289 0.0
0.907812937229 -0.00292153400496 0.0
1.06549635536 -0.0186391091583 0.0
0.993624918586 -0.0103900683449 0.0
0.895683324372 -0.00332012272663 0.0
1.02468642915 -0.013767600571 0.0
0.885459221068 -0.0030957089406 0.0
0.8762029579 -0.00270833493195 0.0
0.868343836734 -0.00206558261556 0.0
0.861819498308 -0.0022917084651 0.0
0.855710877558 -0.00208380511463 0.0
0.850103249055 -0.00188033844662 0.0
0.845064069339 -0.00169701745665 0.0
0.840638603214 -0.00143254199426 0.0
0.836644277301 -0.00133526019837 0.0
0.833184098186 -0.00118465962582 0.0
0.830051283331 -0.00106986134258 0.0
0.827218198475 -0.000984703324177 0.0
0.82465814454 -0.000903670731934 0.0
1.30105049558 -2.63907407005e-05 0.0
0.822434300958 -0.000779842117151 0.0
0.820740555516 -0.00056793113313 0.0
0.819876327972 -0.000235569799303 0.0
0.819680800317 -3.79392513136e-05 0.0
1.31820199072 5.55586207578e-05 0.0
1.03502656996 -0.0399854009081 0.0
1.3232745619 0.000424181825606 0.0
1.31121161462 -0.00510287505091 0.0
1.30949725413 -0.0086367051087 0.0
1.30155015519 -0.00986219190243 0.0
1.32360573302 -0.00539348808155 0.0
0.811807861621 -0.00317975796834 0.0
0.852659866633 -0.00214896616022 0.0
0.867883889058 -0.00346062522282 0.0
0.877619055433 -0.00730228667812 0.0
1.15572238252 -0.0653584846148 0.0
1.0066095386 -0.0244286281466 0.0
1.32553410451 -8.01115383898e-05 0.0
1.37758530826 -0.00307916863846 0.0
1.37484889206 -0.00340610145288 0.0
1.14041008297 -0.0216708372178 0.0
1.36635282779 -0.00297257877534 0.0
1.07630736445 -0.029218594253 0.0
1.37158175749 -0.00370990929935 0.0
1.36783962356 -0.00264941056873 0.0
1.3691004433 -0.00236851045568 0.0
1.36308020368 -0.00403091314604 0.0
0.916921801871 -0.0142059025709 0.0
1.37028802437 -0.00212969433638 0.0
1.35961177313 -0.00426099854294 0.0
1.37143926659 -0.00193344431573 0.0
1.37252418245 -0.00177580504827 0.0
1.18685267287 -0.0176232538271 0.0
1.37331142237 -0.00158122301439 0.0
1.36338593137 -0.00110162485789 0.0
1.41095014617 -0.000478484804185 0.0
0.593756979345 0.000226866676576 0.0
1.35029456593 -0.00494316298184 0.0
1.40745130175 -0.000105939085497 0.0
0.609255936113 0.000191255977127 0.0
0.567498118653 0.000469979152867 0.0
1.40739062987 1.43440893201e-05 0.0
0.591320634997 0.000287596408558 0.0
1.34639349305 -0.00528810878569 0.0
1.22276649642 -0.0150817203169 0.0
0.591324321137 0.000155652467787 0.0
0.592179122408 4.82512110923e-05 0.0
0.593638825461 -9.05040466311e-06 0.0
0.595500069234 -3.48730189498e-05 0.0
1.3402921691 -0.00571497848608 0.0
1.25183730299 -0.0130549419214 0.0
0.59761412251 -5.90798366361e-05 0.0
0.599961301987 -9.62799865041e-05 0.0
0.602596152482 -0.000158465054317 0.0
0.60549487968 -0.000204422553287 0.0
0.609477900157 -0.000419408083365 0.0
1.33245635223 -0.00618170007041 0.0
1.27453767236 -0.0113073037357 0.0
0.613323696183 -0.000483949629209 0.0
0.617691430396 -0.000562493931228 0.0
0.485752191655 -0.000469095428714 0.0
0.622594916691 -0.000665801396188 0.0
0.80366831512 -0.00732295827011 0.0
0.646162555476 -0.000796294255922 0.0
0.766045483178 -0.00518781058815 0.0
0.654089466141 -0.000965177251446 0.0
0.627744010667 -0.000705262163743 0.0
0.738219928366 -0.00385419861203 0.0
0.662324746602 -0.000805671809359 0.0
0.716632198635 -0.00294109494886 0.0
0.506535193208 0.000423751893813 0.0
0.592890178343 -0.00201224113395 0.0
0.529146727373 -0.000167764361006 0.0
1.32413250864 -0.00652468110936 0.0
1.29265392943 -0.00997974195632 0.0
1.30543430936 -0.00920985116918 0.0
1.32819444856 -0.00712608484742 0.0
1.35370754377 -0.00476556590337 0.0
1.36192869913 -0.00453475389024 0.0
0.614763337786 -0.00257550899543 0.0
0.829451906773 -0.00762279843333 0.0
1.40978507704 7.54383235721e-06 0.0
1.03503546978 -0.0584597042059 0.0
1.10507159416 0.000184633281153 0.0
1.17301895234 -6.08612525979e-05 0.0
1.04289831197 -0.0212286811699 0.0
0.489242295751 8.45892010157e-05 0.0
1.11271284255 -0.082147316508 0.0
0.964403945138 -0.0521122793177 0.0
0.538032817202 -0.000928377613742 0.0
1.42208525873 -0.00261607442755 0.0
1.41804908984 -0.00295036532235 0.0
1.42477922526 -0.00223503352165 0.0
1.41262518609 -0.00320069718003 0.0
1.28629532801 -0.315996719446 0.0
1.4060827388 -0.00348896814144 0.0
1.42846599884 -0.00198750354758 0.0
1.39957676968 -0.00371198161297 0.0
1.43173466008 -0.00176838736641 0.0
1.43470621727 -0.00157975348442 0.0
1.19784159869 -0.0108816792375 0.0
1.37105779461 -0.00443557402961 0.0
1.10989750551 -0.0166326735552 0.0
1.36145507415 -0.00476456136784 0.0
1.2317014986 -0.00952737186264 0.0
1.43743854382 -0.00142514956648 0.0
1.35071955262 -0.00510365072658 0.0
1.26024041334 -0.00842540091189 0.0
1.15797507405 -0.0128168411017 0.0
1.28426678434 -0.00750943812755 0.0
1.43994854957 -0.00132270690187 0.0
1.4408311401 -0.0011822160732 0.0
1.44097113368 -0.000753862590331 0.0
1.43821336555 3.40620997698e-05 0.0
1.43982755227 0.000194388975544 0.0
1.44120525156 0.00010531205026 0.0
1.14456993654 -0.00429104890088 0.0
0.70788772138 -0.00844772769776 0.0
0.756900347514 -0.0135990258649 0.0
0.816691129553 -0.0209633679365 0.0
0.677654975417 -0.00736788038135 0.0
0.457697611251 -0.000475209615173 0.0
0.457840100467 -0.000527851905165 0.0
0.458610277714 -0.000622901374549 0.0
1.19391760324 -0.00837133299601 0.0
0.459931569511 -0.000680424650534 0.0
0.461612172687 -0.000710007841608 0.0
0.463508715856 -0.000736466956015 0.0
1.10931283286 0.000231262476377 0.0
1.19908318565 -0.0106517452893 0.0
0.465587462602 -0.000770667621147 0.0
1.109512951 0.000122252799826 0.0
0.467896038122 -0.00081982421649 0.0
0.470501272769 -0.000905385910748 0.0
0.473241801549 -0.000534682237525 0.0
0.476496895575 -0.000607818840242 0.0
1.09638465105 -3.47169325208e-05 0.0
0.480207064413 -0.000665521549022 0.0
1.09669666228 1.08069738604e-05 0.0
0.46579445006 -0.000314657020735 0.0
0.484363226149 -0.000737613691482 0.0
1.0976233512 -0.000564099357805 0.0
0.467863089537 -0.000271056200416 0.0
1.09952169798 -0.000879577789699 0.0
0.464476525902 -0.000750055752228 0.0
0.488985811443 -0.000861913826983 0.0
1.10111724949 -0.00104671556619 0.0
0.465107811376 -0.000318551995285 0.0
0.4792260756 -0.000281717247089 0.0
1.10286432743 -0.00117486944038 0.0
0.65211455431 -0.00670877951834 0.0
1.10483787839 -0.0013211380621 0.0
1.10712131462 -0.00151010156631 0.0
0.506513298059 -0.000795687890316 0.0
1.10963198181 -0.0017337304927 0.0
1.10979499254 -0.00210307409222 0.0
1.22489576892 -0.0263418894677 0.0
0.617587356471 -0.00441277309033 0.0
0.513131326348 -0.00116959077088 0.0
1.11105445121 -0.00221993079343 0.0
1.11494217577 -0.00250538210243 0.0
0.592647345406 -0.00339884609693 0.0
0.520245707632 -0.00123643637318 0.0
1.1191959861 -0.00279219985144 0.0
0.573751934578 -0.00271511533958 0.0
0.502427931537 -0.000485830769226 0.0
1.1237482311 -0.00305651092523 0.0
1.12618857195 -0.00321037477637 0.0
0.544554766656 -0.00198249108584 0.0
1.13816428517 -0.00471185062281 0.0
1.14501706383 -0.0041542817068 0.0
1.15183959874 -0.00455476294591 0.0
1.21688556764 -0.0204102297256 0.0
1.15940591784 -0.00500114434899 0.0
1.20687396897 -0.016265076158 0.0
1.16449046216 -0.00556258464648 0.0
1.19679192056 -0.0133264427066 0.0
1.18410971108 -0.0112888745831 0.0
1.22327224932 -0.0388405468799 0.0
1.20612145815 -0.0513922367353 0.0
1.19001053024 -0.0599031341309 0.0
1.18195454874 -0.00972721685809 0.0
1.22566012012 -0.0351482372109 0.0
1.22349328502 -0.0268439353551 0.0
1.19231507175 -0.0118757867879 0.0
1.15561155705 -0.00685154481873 0.0
1.20385734915 -0.0150447432392 0.0
1.14685092897 -0.00637430522262 0.0
1.21517813092 -0.0195435834548 0.0
1.13975471616 -0.005855896812 0.0
0.569722897587 -0.00217179890938 0.0
1.13977786966 -0.00503573474772 0.0
0.588617791347 -0.00297222655673 0.0
0.529404927884 -0.00110181484414 0.0
0.654331484984 -0.00626811545871 0.0
1.11960305061 -0.00446420235818 0.0
0.609716152185 -0.00378053975898 0.0
0.526826027833 -0.00138132979682 0.0
1.11530044616 -0.00434337423212 0.0
1.11092325404 -0.00401980863584 0.0
0.637902906335 -0.0049631354218 0.0
0.519927092405 -0.00129193834628 0.0
1.10686897885 -0.00368529335294 0.0
1.43709680394 -0.00033516986801 0.0
1.10313545298 -0.00337511320658 0.0
1.11343878422 -0.00279006019091 0.0
0.49047996016 -0.000363946730775 0.0
1.11122114841 -0.00253084165611 0.0
1.10889409398 -0.00230206040607 0.0
1.10682447913 -0.00211674704426 0.0
1.10503136555 -0.00196990649574 0.0
1.10344860914 -0.00183042372325 0.0
1.10200001171 -0.00162701182201 0.0
1.10020738693 -0.00133037897929 0.0
1.10135337848 -3.52135005195e-05 0.0
1.09993752033 -0.000397465865153 0.0
1.10037345631 -0.000320292525608 0.0
1.0973134678 -0.00046896784698 0.0
1.3799229143 -0.00411966645528 0.0
1.44033040205 -0.000816204686425 0.0
0.500581286857 -0.00110458788764 0.0
0.491095257582 -0.00111775523032 0.0
0.486594225054 -0.00101228137615 0.0
0.482576266231 -0.000941777466845 0.0
0.478999181878 -0.000887061383996 0.0
1.44018717785 -0.00125106798671 0.0
0.476010065538 -0.000486450264736 0.0
0.473263305926 -0.000538205444959 0.0
0.470752579528 -0.000471862427165 0.0
0.468527132658 -0.000432787146352 0.0
0.466513573867 -0.000406365621587 0.0
0.464685232345 -0.000384548894582 0.0
1.43977438579 -0.00152731123578 0.0
0.463113960548 -0.000350030833322 0.0
0.461968680615 -0.00028239624245 0.0
0.461461341004 -0.000182086005069 0.0
0.464715659839 0.000173604844048 0.0
1.43732714361 -0.00162272029592 0.0
1.43463062564 -0.00176374822237 0.0
1.31174644636 -0.00749400542441 0.0
1.43172934617 -0.00194376354189 0.0
1.332374513 -0.00541015361993 0.0
0.867179542006 5.36491490759e-06 0.0
1.42856738709 -0.0021592597327 0.0
1.00553477106 -0.0112859271624 0.0
1.08534875926 -0.0198066413052 0.0
1.43704605376 -0.000174703691369 0.0
1.42504535661 -0.00240448180537 0.0
1.22771078023 -0.096014968563 0.0
1.42129584892 -0.0026376908346 0.0
1.43234902859 -0.00228321798049 0.0
1.38531627349 -0.0036234304212 0.0
1.4260415311 -0.00249638281433 0.0
1.41896145779 -0.00272040522644 0.0
1.43489582915 4.76477236401e-05 0.0
1.41079901413 -0.00290413968925 0.0
1.40273641538 -0.00289632590582 0.0
1.13607563198 -0.011875780781 0.0
1.17835407335 -0.00975393033164 0.0
1.37836738935 -0.00346646120117 0.0
1.34421464813 -0.00411155785578 0.0
1.29324797393 -0.00616316142219 0.0
1.36811581172 -0.00372812188307 0.0
1.21405448276 -0.0086090419468 0.0