# vtk DataFile Version 2.0
2D Simulation Python
ASCII
DATASET UNSTRUCTURED_GRID
FIELD FieldData 1
NODES 1 2 int
2790 1289

POINTS 2790 double
0.0 1.0 0.0
1.725 1.0 0.0
8.275 1.0 0.0
20.0 1.0 0.0
20.0 0.0 0.0
0.0 0.0 0.0
0.1916666666663293 1.0 0.0
0.3833333333324708 1.0 0.0
0.574999999998553 1.0 0.0
0.7666666666645966 1.0 0.0
0.9583333333312576 1.0 0.0
1.149999999998384 1.0 0.0
1.341666666665662 1.0 0.0
1.533333333332819 1.0 0.0
0.0958333333331406 1.0 0.0
0.2874999999994247 1.0 0.0
0.4791666666655395 1.0 0.0
0.6708333333315728 1.0 0.0
0.8624999999976626 1.0 0.0
1.054166666664886 1.0 0.0
1.245833333332057 1.0 0.0
1.437499999999343 1.0 0.0
1.629166666666455 1.0 0.0
1.92348484848444 1.0 0.0
2.121969696968978 1.0 0.0
2.320454545453434 1.0 0.0
2.518939393937826 1.0 0.0
2.717424242422235 1.0 0.0
2.915909090906411 1.0 0.0
3.1143939393908 1.0 0.0
3.312878787875129 1.0 0.0
3.511363636359531 1.0 0.0
3.709848484843827 1.0 0.0
3.90833333332816 1.0 0.0
4.106818181812215 1.0 0.0
4.305303030296804 1.0 0.0
4.503787878781365 1.0 0.0
4.702272727265711 1.0 0.0
4.900757575750005 1.0 0.0
5.099242424235156 1.0 0.0
5.297727272720327 1.0 0.0
5.496212121205663 1.0 0.0
5.694696969690998 1.0 0.0
5.89318181817668 1.0 0.0
6.09166666666213 1.0 0.0
6.290151515147423 1.0 0.0
6.488636363633031 1.0 0.0
6.687121212118713 1.0 0.0
6.885606060604342 1.0 0.0
7.084090909089381 1.0 0.0
7.282575757574369 1.0 0.0
7.481060606059355 1.0 0.0
7.679545454544343 1.0 0.0
7.878030303029329 1.0 0.0
8.076515151514705 1.0 0.0
1.824242424242199 1.0 0.0
2.022727272726695 1.0 0.0
2.221212121211181 1.0 0.0
2.41969696969563 1.0 0.0
2.618181818180092 1.0 0.0
2.816666666664316 1.0 0.0
3.015151515148624 1.0 0.0
3.213636363633039 1.0 0.0
3.412121212117267 1.0 0.0
3.610606060601583 1.0 0.0
3.809090909085975 1.0 0.0
4.007575757570153 1.0 0.0
4.206060606054539 1.0 0.0
4.404545454539001 1.0 0.0
4.603030303023853 1.0 0.0
4.801515151507715 1.0 0.0
4.999999999992074 1.0 0.0
5.198484848477777 1.0 0.0
5.396969696963081 1.0 0.0
5.595454545448261 1.0 0.0
5.793939393933949 1.0 0.0
5.992424242419331 1.0 0.0
6.190909090904785 1.0 0.0
6.389393939390224 1.0 0.0
6.587878787875795 1.0 0.0
6.786363636361617 1.0 0.0
6.984848484846598 1.0 0.0
7.183333333331875 1.0 0.0
7.381818181816625 1.0 0.0
7.580303030301849 1.0 0.0
7.778787878786936 1.0 0.0
7.977272727272114 1.0 0.0
8.175757575757618 1.0 0.0
8.473728813558951 1.0 0.0
8.672457627118133 1.0 0.0
8.871186440676855 1.0 0.0
9.069915254236154 1.0 0.0
9.268644067794812 1.0 0.0
9.467372881354057 1.0 0.0
9.666101694912944 1.0 0.0
9.864830508471961 1.0 0.0
10.06355932203108 1.0 0.0
10.26228813558986 1.0 0.0
10.46101694914916 1.0 0.0
10.65974576270777 1.0 0.0
10.85847457626706 1.0 0.0
11.05720338982589 1.0 0.0
11.25593220338497 1.0 0.0
11.45466101694402 1.0 0.0
11.65338983050287 1.0 0.0
11.85211864406215 1.0 0.0
12.05084745762035 1.0 0.0
12.24957627117938 1.0 0.0
12.44830508473794 1.0 0.0
12.64703389829659 1.0 0.0
12.84576271185557 1.0 0.0
13.04449152541379 1.0 0.0
13.24322033897301 1.0 0.0
13.44194915253121 1.0 0.0
13.6406779660903 1.0 0.0
13.83940677964874 1.0 0.0
14.03813559320751 1.0 0.0
14.23686440676681 1.0 0.0
14.43559322032663 1.0 0.0
14.63432203388679 1.0 0.0
14.8330508474463 1.0 0.0
15.0317796610067 1.0 0.0
15.23050847456608 1.0 0.0
15.42923728812645 1.0 0.0
15.62796610168606 1.0 0.0
15.82669491524602 1.0 0.0
16.02542372880584 1.0 0.0
16.22415254236431 1.0 0.0
16.42288135592496 1.0 0.0
16.62161016948498 1.0 0.0
16.82033898304518 1.0 0.0
17.01906779660567 1.0 0.0
17.2177966101654 1.0 0.0
17.41652542372565 1.0 0.0
17.61525423728425 1.0 0.0
17.81398305084494 1.0 0.0
18.01271186440355 1.0 0.0
18.21144067796387 1.0 0.0
18.41016949152309 1.0 0.0
18.6088983050827 1.0 0.0
18.80762711864282 1.0 0.0
19.00635593220153 1.0 0.0
19.20508474576211 1.0 0.0
19.40381355932072 1.0 0.0
19.60254237288117 1.0 0.0
19.80127118644013 1.0 0.0
8.374364406779554 1.0 0.0
8.573093220338519 1.0 0.0
8.771822033897509 1.0 0.0
8.970550847456504 1.0 0.0
9.169279661015429 1.0 0.0
9.368008474574502 1.0 0.0
9.566737288133496 1.0 0.0
9.765466101692677 1.0 0.0
9.964194915251602 1.0 0.0
10.16292372881015 1.0 0.0
10.36165254236967 1.0 0.0
10.56038135592849 1.0 0.0
10.75911016948728 1.0 0.0
10.95783898304648 1.0 0.0
11.15656779660554 1.0 0.0
11.35529661016447 1.0 0.0
11.55402542372345 1.0 0.0
11.75275423728253 1.0 0.0
11.95148305084111 1.0 0.0
12.15021186439983 1.0 0.0
12.34894067795883 1.0 0.0
12.54766949151722 1.0 0.0
12.74639830507616 1.0 0.0
12.94512711863486 1.0 0.0
13.14385593219357 1.0 0.0
13.34258474575207 1.0 0.0
13.54131355931069 1.0 0.0
13.7400423728695 1.0 0.0
13.93877118642822 1.0 0.0
14.13749999998697 1.0 0.0
14.33622881354686 1.0 0.0
14.53495762710678 1.0 0.0
14.73368644066656 1.0 0.0
14.93241525422655 1.0 0.0
15.13114406778625 1.0 0.0
15.32987288134641 1.0 0.0
15.52860169490635 1.0 0.0
15.7273305084661 1.0 0.0
15.9260593220261 1.0 0.0
16.12478813558534 1.0 0.0
16.32351694914468 1.0 0.0
16.52224576270527 1.0 0.0
16.72097457626511 1.0 0.0
16.91970338982543 1.0 0.0
17.11843220338561 1.0 0.0
17.31716101694539 1.0 0.0
17.51588983050497 1.0 0.0
17.71461864406449 1.0 0.0
17.91334745762401 1.0 0.0
18.11207627118383 1.0 0.0
18.31080508474307 1.0 0.0
18.50953389830311 1.0 0.0
18.70826271186271 1.0 0.0
18.90699152542239 1.0 0.0
19.10572033898203 1.0 0.0
19.30444915254171 1.0 0.0
19.50317796610107 1.0 0.0
19.70190677966065 1.0 0.0
19.90063559322003 1.0 0.0
20.0 0.7999999999999998 0.0
20.0 0.6000000000013869 0.0
20.0 0.4000000000016644 0.0
20.0 0.2000000000008322 0.0
20.0 0.9000000000000369 0.0
20.0 0.7000000000005904 0.0
20.0 0.5000000000017577 0.0
20.0 0.3000000000012483 0.0
20.0 0.1000000000004161 0.0
19.8 0.0 0.0
19.6 0.0 0.0
19.4 0.0 0.0
19.2 0.0 0.0
19.0 0.0 0.0
18.8 0.0 0.0
18.6 0.0 0.0
18.4 0.0 0.0
18.2 0.0 0.0
18.0 0.0 0.0
17.8 0.0 0.0
17.59999999999999 0.0 0.0
17.4 0.0 0.0
17.2 0.0 0.0
16.99999999999999 0.0 0.0
16.79999999999999 0.0 0.0
16.59999999999999 0.0 0.0
16.4 0.0 0.0
16.2 0.0 0.0
15.99999999999999 0.0 0.0
15.79999999999999 0.0 0.0
15.59999999999999 0.0 0.0
15.4 0.0 0.0
15.2 0.0 0.0
15.0 0.0 0.0
14.79999999999999 0.0 0.0
14.59999999999999 0.0 0.0
14.4 0.0 0.0
14.2 0.0 0.0
13.99999999999999 0.0 0.0
13.8 0.0 0.0
13.59999999999999 0.0 0.0
13.4 0.0 0.0
13.2 0.0 0.0
13.0 0.0 0.0
12.79999999999999 0.0 0.0
12.6 0.0 0.0
12.4 0.0 0.0
12.2 0.0 0.0
11.99999999999999 0.0 0.0
11.8 0.0 0.0
11.6 0.0 0.0
11.4 0.0 0.0
11.2 0.0 0.0
11.0 0.0 0.0
10.8 0.0 0.0
10.6 0.0 0.0
10.4 0.0 0.0
10.2 0.0 0.0
9.999999999999998 0.0 0.0
9.799999999999995 0.0 0.0
9.599999999999998 0.0 0.0
9.399999999999997 0.0 0.0
9.199999999999998 0.0 0.0
8.999999999999996 0.0 0.0
8.799999999999997 0.0 0.0
8.599999999999996 0.0 0.0
8.399999999999999 0.0 0.0
8.199999999999996 0.0 0.0
7.999999999999998 0.0 0.0
7.799999999999997 0.0 0.0
7.599999999999998 0.0 0.0
7.399999999999999 0.0 0.0
7.199999999999998 0.0 0.0
6.999999999999995 0.0 0.0
6.799999999999995 0.0 0.0
6.599999999999998 0.0 0.0
6.399999999999997 0.0 0.0
6.199999999999996 0.0 0.0
5.999999999999998 0.0 0.0
5.799999999999999 0.0 0.0
5.599999999999996 0.0 0.0
5.399999999999995 0.0 0.0
5.199999999999996 0.0 0.0
4.999999999999998 0.0 0.0
4.799999999999997 0.0 0.0
4.599999999999998 0.0 0.0
4.399999999999999 0.0 0.0
4.199999999999999 0.0 0.0
3.999999999999996 0.0 0.0
3.799999999999997 0.0 0.0
3.599999999999998 0.0 0.0
3.399999999999999 0.0 0.0
3.199999999999999 0.0 0.0
3.0 0.0 0.0
2.800000000000001 0.0 0.0
2.599999999999998 0.0 0.0
2.399999999999999 0.0 0.0
2.199999999999996 0.0 0.0
1.999999999999996 0.0 0.0
1.800000000000001 0.0 0.0
1.599999999999998 0.0 0.0
1.399999999999999 0.0 0.0
1.200000000000003 0.0 0.0
1.0 0.0 0.0
0.7999999999999972 0.0 0.0
0.5999999999999979 0.0 0.0
0.3999999999999986 0.0 0.0
0.1999999999999993 0.0 0.0
19.90000000000022 0.0 0.0
19.69999999999997 0.0 0.0
19.49999999999987 0.0 0.0
19.30000000000005 0.0 0.0
19.09999999999999 0.0 0.0
18.89999999999987 0.0 0.0
18.7 0.0 0.0
18.49999999999999 0.0 0.0
18.30000000000001 0.0 0.0
18.09999999999987 0.0 0.0
17.90000000000013 0.0 0.0
17.7 0.0 0.0
17.49999999999987 0.0 0.0
17.30000000000025 0.0 0.0
17.10000000000001 0.0 0.0
16.90000000000005 0.0 0.0
16.70000000000003 0.0 0.0
16.50000000000006 0.0 0.0
16.29999999999997 0.0 0.0
16.09999999999999 0.0 0.0
15.89999999999987 0.0 0.0
15.69999999999999 0.0 0.0
15.49999999999999 0.0 0.0
15.3 0.0 0.0
15.10000000000003 0.0 0.0
14.90000000000005 0.0 0.0
14.69999999999992 0.0 0.0
14.49999999999996 0.0 0.0
14.29999999999999 0.0 0.0
14.10000000000008 0.0 0.0
13.89999999999988 0.0 0.0
13.70000000000003 0.0 0.0
13.50000000000004 0.0 0.0
13.29999999999992 0.0 0.0
13.09999999999995 0.0 0.0
12.90000000000016 0.0 0.0
12.7 0.0 0.0
12.49999999999986 0.0 0.0
12.30000000000003 0.0 0.0
12.10000000000016 0.0 0.0
11.90000000000005 0.0 0.0
11.69999999999994 0.0 0.0
11.49999999999993 0.0 0.0
11.30000000000005 0.0 0.0
11.0999999999999 0.0 0.0
10.90000000000004 0.0 0.0
10.69999999999995 0.0 0.0
10.50000000000012 0.0 0.0
10.29999999999999 0.0 0.0
10.09999999999993 0.0 0.0
9.900000000000077 0.0 0.0
9.699999999999969 0.0 0.0
9.499999999999982 0.0 0.0
9.299999999999969 0.0 0.0
9.100000000000108 0.0 0.0
8.899999999999972 0.0 0.0
8.699999999999958 0.0 0.0
8.499999999999998 0.0 0.0
8.30000000000003 0.0 0.0
8.099999999999977 0.0 0.0
7.899999999999974 0.0 0.0
7.700000000000166 0.0 0.0
7.499999999999854 0.0 0.0
7.299999999999997 0.0 0.0
7.100000000000019 0.0 0.0
6.900000000000002 0.0 0.0
6.699999999999974 0.0 0.0
6.500000000000037 0.0 0.0
6.299999999999981 0.0 0.0
6.100000000000014 0.0 0.0
5.899999999999949 0.0 0.0
5.700000000000049 0.0 0.0
5.499999999999956 0.0 0.0
5.300000000000118 0.0 0.0
5.100000000000005 0.0 0.0
4.900000000000109 0.0 0.0
4.699999999999982 0.0 0.0
4.499999999999936 0.0 0.0
4.300000000000137 0.0 0.0
4.100000000000012 0.0 0.0
3.899999999999888 0.0 0.0
3.69999999999974 0.0 0.0
3.500000000000046 0.0 0.0
3.299999999999965 0.0 0.0
3.099999999999817 0.0 0.0
2.900000000000066 0.0 0.0
2.699999999999793 0.0 0.0
2.500000000000064 0.0 0.0
2.299999999999823 0.0 0.0
[...]
POINT_DATA 2790
VECTORS vector double
1.0 0.0 0.0
0.0 0.0 0.0
0.0 0.0 0.0
0.0 0.0 0.0
1.14143297271 0.0 0.0
1.0 0.0 0.0
0.0 0.0 0.0
0.0 0.0 0.0
0.0 0.0 0.0
0.0 0.0 0.0
0.0 0.0 0.0
0.0 0.0 0.0
0.0 0.0 0.0
0.0 0.0 0.0
0.0 0.0 0.0
0.0 0.0 0.0
0.0 0.0 0.0
0.0 0.0 0.0
0.0 0.0 0.0
0.0 0.0 0.0
0.0 0.0 0.0
0.0 0.0 0.0
0.0 0.0 0.0
0.0 0.0 0.0
0.0 0.0 0.0
0.0 0.0 0.0
0.0 0.0 0.0
0.0 0.0 0.0
0.0 0.0 0.0
0.0 0.0 0.0
0.0 0.0 0.0
0.0 0.0 0.0
0.0 0.0 0.0
0.0 0.0 0.0
0.0 0.0 0.0
0.0 0.0 0.0
0.0 0.0 0.0
0.0 0.0 0.0
0.0 0.0 0.0
0.0 0.0 0.0
0.0 0.0 0.0
0.0 0.0 0.0
0.0 0.0 0.0
0.0 0.0 0.0
0.0 0.0 0.0
0.0 0.0 0.0
0.0 0.0 0.0
0.0 0.0 0.0
0.0 0.0 0.0
0.0 0.0 0.0
0.0 0.0 0.0
0.0 0.0 0.0
0.0 0.0 0.0
0.0 0.0 0.0
0.0 0.0 0.0
0.0 0.0 0.0
0.0 0.0 0.0
0.0 0.0 0.0
0.0 0.0 0.0
0.0 0.0 0.0
0.0 0.0 0.0
0.0 0.0 0.0
0.0 0.0 0.0
0.0 0.0 0.0
0.0 0.0 0.0
0.0 0.0 0.0
0.0 0.0 0.0
0.0 0.0 0.0
0.0 0.0 0.0
0.0 0.0 0.0
0.0 0.0 0.0
0.0 0.0 0.0
0.0 0.0 0.0
0.0 0.0 0.0
0.0 0.0 0.0
0.0 0.0 0.0
0.0 0.0 0.0
0.0 0.0 0.0
0.0 0.0 0.0
0.0 0.0 0.0
0.0 0.0 0.0
0.0 0.0 0.0
0.0 0.0 0.0
0.0 0.0 0.0
0.0 0.0 0.0
0.0 0.0 0.0
0.0 0.0 0.0
0.0 0.0 0.0
0.0 0.0 0.0
0.0 0.0 0.0
0.0 0.0 0.0
0.0 0.0 0.0
0.0 0.0 0.0
0.0 0.0 0.0
0.0 0.0 0.0
0.0 0.0 0.0
0.0 0.0 0.0
0.0 0.0 0.0
0.0 0.0 0.0
0.0 0.0 0.0
0.0 0.0 0.0
0.0 0.0 0.0
0.0 0.0 0.0
0.0 0.0 0.0
0.0 0.0 0.0
0.0 0.0 0.0
0.0 0.0 0.0
0.0 0.0 0.0
0.0 0.0 0.0
0.0 0.0 0.0
0.0 0.0 0.0
0.0 0.0 0.0
0.0 0.0 0.0
0.0 0.0 0.0
0.0 0.0 0.0
0.0 0.0 0.0
0.0 0.0 0.0
0.0 0.0 0.0
0.0 0.0 0.0
0.0 0.0 0.0
0.0 0.0 0.0
0.0 0.0 0.0
0.0 0.0 0.0
0.0 0.0 0.0
0.0 0.0 0.0
0.0 0.0 0.0
0.0 0.0 0.0
0.0 0.0 0.0
0.0 0.0 0.0
0.0 0.0 0.0
0.0 0.0 0.0
0.0 0.0 0.0
0.0 0.0 0.0
0.0 0.0 0.0
0.0 0.0 0.0
0.0 0.0 0.0
0.0 0.0 0.0
0.0 0.0 0.0
0.0 0.0 0.0
0.0 0.0 0.0
0.0 0.0 0.0
0.0 0.0 0.0
0.0 0.0 0.0
0.0 0.0 0.0
0.0 0.0 0.0
0.0 0.0 0.0
0.0 0.0 0.0
0.0 0.0 0.0
0.0 0.0 0.0
0.0 0.0 0.0
0.0 0.0 0.0
0.0 0.0 0.0
0.0 0.0 0.0
0.0 0.0 0.0
0.0 0.0 0.0
0.0 0.0 0.0
0.0 0.0 0.0
0.0 0.0 0.0
0.0 0.0 0.0
0.0 0.0 0.0
0.0 0.0 0.0
0.0 0.0 0.0
0.0 0.0 0.0
0.0 0.0 0.0
0.0 0.0 0.0
0.0 0.0 0.0
0.0 0.0 0.0
0.0 0.0 0.0
0.0 0.0 0.0
0.0 0.0 0.0
0.0 0.0 0.0
0.0 0.0 0.0
0.0 0.0 0.0
0.0 0.0 0.0
0.0 0.0 0.0
0.0 0.0 0.0
0.0 0.0 0.0
0.0 0.0 0.0
0.0 0.0 0.0
0.0 0.0 0.0
0.0 0.0 0.0
0.0 0.0 0.0
0.0 0.0 0.0
0.0 0.0 0.0
0.0 0.0 0.0
0.0 0.0 0.0
0.0 0.0 0.0
0.0 0.0 0.0
0.0 0.0 0.0
0.0 0.0 0.0
0.0 0.0 0.0
0.0 0.0 0.0
0.0 0.0 0.0
0.0 0.0 0.0
0.0 0.0 0.0
0.0 0.0 0.0
0.0 0.0 0.0
0.0 0.0 0.0
0.0 0.0 0.0
0.0 0.0 0.0
0.0 0.0 0.0
0.0 0.0 0.0
0.0 0.0 0.0
0.0 0.0 0.0
0.0 0.0 0.0
0.950097756538 -0.00171256686835 0.0
1.15599748808 -0.00324034201398 0.0
1.14498637563 0.000134603488851 0.0
1.14206884292 7.17007931235e-05 0.0
0.504589376855 -0.00341014584978 0.0
1.07833797428 0.00606080745952 0.0
1.14740351799 -2.86477573052e-05 0.0
1.14262747741 -0.00015178467738 0.0
1.14261151386 1.12192139396e-05 0.0
1.14150779195 0.0 0.0
1.14084637575 0.0 0.0
1.14033686766 0.0 0.0
1.13992110981 0.0 0.0
1.13870537111 0.0 0.0
1.13794588671 0.0 0.0
1.13723795408 0.0 0.0
1.13657963937 0.0 0.0
1.13640350396 0.0 0.0
1.13646060012 0.0 0.0
1.13642106794 0.0 0.0
1.13658636275 0.0 0.0
1.13675793828 0.0 0.0
1.13670519806 0.0 0.0
1.13637255011 0.0 0.0
1.13646245864 0.0 0.0
1.13676729031 0.0 0.0
1.13638763683 0.0 0.0
1.1364305339 0.0 0.0
1.13675902802 0.0 0.0
1.13636696841 0.0 0.0
1.13641603518 0.0 0.0
1.13674258135 0.0 0.0
1.13634683203 0.0 0.0
1.13639292667 0.0 0.0
1.13671406292 0.0 0.0
1.13630974695 0.0 0.0
1.13634422148 0.0 0.0
1.13665993171 0.0 0.0
1.13625523768 0.0 0.0
1.13628193543 0.0 0.0
1.13656737021 0.0 0.0
1.13608953007 0.0 0.0
1.13602581902 0.0 0.0
1.13626315486 0.0 0.0
1.13574870101 0.0 0.0
1.13563149065 0.0 0.0
1.13585832747 0.0 0.0
1.13523389119 0.0 0.0
1.13489820319 0.0 0.0
1.13539378679 0.0 0.0
1.13505011056 0.0 0.0
1.13484413739 0.0 0.0
1.13546934713 0.0 0.0
1.13532275555 0.0 0.0
1.13542182475 0.0 0.0
1.13647967491 0.0 0.0
1.13678365099 0.0 0.0
1.13748044628 0.0 0.0
1.13957121614 0.0 0.0
1.1414944509 0.0 0.0
1.14359833701 0.0 0.0
1.14530482647 0.0 0.0
1.14588827205 0.0 0.0
1.14418088955 0.0 0.0
1.1413523137 0.0 0.0
1.13858856539 0.0 0.0
1.1368312369 0.0 0.0
1.13524347739 0.0 0.0
1.13446051915 0.0 0.0
1.13481359067 0.0 0.0
1.13482342097 0.0 0.0
1.13511314954 0.0 0.0
1.13655695581 0.0 0.0
1.1375231232 0.0 0.0
1.13919525853 0.0 0.0
1.14328299669 0.0 0.0
1.14781771626 0.0 0.0
1.15237239875 0.0 0.0
1.1560871181 0.0 0.0
1.15761891358 0.0 0.0
1.15563108 0.0 0.0
1.1522619159 0.0 0.0
1.14794152103 0.0 0.0
1.1438444324 0.0 0.0
1.14113709967 0.0 0.0
1.13835571042 0.0 0.0
1.1366956255 0.0 0.0
1.13633585662 0.0 0.0
1.13618763188 0.0 0.0
1.13548819386 0.0 0.0
1.13599616415 0.0 0.0
1.13691598848 0.0 0.0
1.13746251532 0.0 0.0
1.13921391318 0.0 0.0
1.14082543312 0.0 0.0
1.14123360189 0.0 0.0
1.14189416169 0.0 0.0
1.1417667138 0.0 0.0
1.14035104734 0.0 0.0
1.13972787484 0.0 0.0
1.1368267055 0.0 0.0
1.12470032338 0.0 0.0
1.10012922553 0.0 0.0
1.0754511201 0.0 0.0
1.05739474758 0.0 0.0
1.03885985467 0.0 0.0
1.01820965049 0.0 0.0
1.00388184428 0.0 0.0
1.14246477949 0.0 0.0
1.14173911018 0.0 0.0
1.14136508032 0.0 0.0
1.14044339618 0.0 0.0
1.1396311685 0.0 0.0
1.13869122492 0.0 0.0
1.13789866594 0.0 0.0
1.13707488354 0.0 0.0
1.13665422278 0.0 0.0
1.13677093601 0.0 0.0
1.13660995367 0.0 0.0
1.13668135325 0.0 0.0
1.13699550947 0.0 0.0
1.13690529284 0.0 0.0
1.13708448174 0.0 0.0
1.1368770006 0.0 0.0
1.13716881367 0.0 0.0
1.13715559359 0.0 0.0
1.1368746776 0.0 0.0
1.13718426123 0.0 0.0
1.1371509568 0.0 0.0
1.13686352422 0.0 0.0
1.13717135346 0.0 0.0
1.13713197016 0.0 0.0
1.13684193501 0.0 0.0
1.13714378598 0.0 0.0
1.13709829175 0.0 0.0
1.13679816449 0.0 0.0
1.13709056117 0.0 0.0
1.13704359455 0.0 0.0
1.13673934951 0.0 0.0
1.13701179292 0.0 0.0
1.13691325851 0.0 0.0
1.13652544496 0.0 0.0
1.13672918028 0.0 0.0
1.13658040462 0.0 0.0
1.13616061273 0.0 0.0
1.13635370382 0.0 0.0
1.13619205856 0.0 0.0
1.13574215695 0.0 0.0
1.13593621529 0.0 0.0
1.13603168799 0.0 0.0
1.13562863424 0.0 0.0
1.13594297293 0.0 0.0
1.13620799389 0.0 0.0
1.13606017834 0.0 0.0
1.13674442386 0.0 0.0
1.13745356469 0.0 0.0
1.13780509807 0.0 0.0
1.13933652235 0.0 0.0
1.1413995252 0.0 0.0
1.1432817915 0.0 0.0
1.14551246829 0.0 0.0
1.14603145014 0.0 0.0
1.14519939843 0.0 0.0
1.14338834617 0.0 0.0
1.14057611893 0.0 0.0
1.13839501109 0.0 0.0
1.13679093254 0.0 0.0
1.13549455044 0.0 0.0
1.13536836348 0.0 0.0
1.13556565827 0.0 0.0
1.13561984238 0.0 0.0
1.13660734563 0.0 0.0
1.1378435317 0.0 0.0
1.1390572384 0.0 0.0
1.14209093736 0.0 0.0
1.14647424657 0.0 0.0
1.15093670957 0.0 0.0
1.15539330037 0.0 0.0
1.15745221959 0.0 0.0
1.1569266822 0.0 0.0
1.1543871866 0.0 0.0
1.15058074105 0.0 0.0
1.1463007373 0.0 0.0
1.14278579702 0.0 0.0
1.14002193325 0.0 0.0
1.13841545203 0.0 0.0
1.13718525803 0.0 0.0
1.13700990904 0.0 0.0
1.13657891487 0.0 0.0
1.136378164 0.0 0.0
1.1372482687 0.0 0.0
1.1379746657 0.0 0.0
1.13900909639 0.0 0.0
1.1408179405 0.0 0.0
1.14179301309 0.0 0.0
1.14218950578 0.0 0.0
1.14253364574 0.0 0.0
1.14168099213 0.0 0.0
1.14030011355 0.0 0.0
1.13867523106 0.0 0.0
1.1314080269 0.0 0.0
1.11297989744 0.0 0.0
1.08705520481 0.0 0.0
1.06603036746 0.0 0.0
1.04863819247 0.0 0.0
1.02841570724 0.0 0.0
1.01052722076 0.0 0.0
0.999952451524 0.0 0.0
1.0 0.0 0.0
1.0 0.0 0.0
1.0 0.0 0.0
1.0 0.0 0.0
1.0 0.0 0.0
1.0 0.0 0.0
1.0 0.0 0.0
1.0 0.0 0.0
1.0 0.0 0.0
1.16787822608 -0.062924916557 0.0
1.19303291403 -0.0244787699312 0.0
1.15422925684 -0.00393518018049 0.0
1.15169138346 -0.000689903336329 0.0
1.14838159428 -0.00173188534848 0.0
1.14882363022 0.00137551430291 0.0
1.14871364777 0.00134123957195 0.0
1.14967663756 0.00113193093371 0.0
1.14945698892 0.00108911703018 0.0
1.14945034888 0.00107162316839 0.0
1.14942612101 0.00106923664673 0.0
1.14941453149 0.00104960835509 0.0
1.14941960398 0.00104782672824 0.0
1.14945852213 0.000904298296943 0.0
1.14815596542 0.00027137673408 0.0
1.14799579952 0.000317950600158 0.0
1.14763057611 0.00053874911157 0.0
1.14715521026 0.00103937100862 0.0
1.14723592103 0.00187821358318 0.0
1.13986601422 -0.00138432478516 0.0
1.15579402116 0.000675708607652 0.0
1.14648065585 0.00158811256835 0.0
1.15044002175 0.0117947576199 0.0
1.15088559942 0.00600913299714 0.0
1.14689426811 0.00273415529877 0.0
1.15683978095 -0.00436859877643 0.0
1.14647563903 0.00119282854919 0.0
1.15682369462 0.0230459462739 0.0
1.14733339526 -0.000369994115456 0.0
1.17643519342 -0.0030546291656 0.0
1.14271957761 -0.00627295911809 0.0
1.14466551252 -0.00895041811461 0.0
1.15631352167 -0.0162632974612 0.0
1.1516578842 -0.00458341116284 0.0
1.20534461851 -0.158771492293 0.0
1.13797751306 -0.00186363477203 0.0
1.13698977259 -0.000357921959148 0.0
1.16162410491 0.00597017735637 0.0
1.13829869228 0.00222959099433 0.0
1.14018528566 0.00599784756811 0.0
1.14409305079 -0.00207103823585 0.0
1.14389960324 0.00173394296662 0.0
1.13714290281 0.00147947891098 0.0
1.13561497955 5.25800925636e-05 0.0
1.14959210198 0.00214451821955 0.0
1.1391508315 0.00265040944076 0.0
1.13750977824 0.000869572748259 0.0
1.13675483579 6.07612678438e-05 0.0
1.13679541515 -0.000139931682845 0.0
1.13724871375 -0.000347415153673 0.0
1.13784672077 -0.000497419347647 0.0
1.13801265983 -0.000417405866799 0.0
1.20808154058 -0.0413851990383 0.0
1.13807104168 -0.000333356477456 0.0
1.13810963304 -0.00033148411173 0.0
1.13813735937 -0.000319402784189 0.0
1.13899525181 -0.0150849581974 0.0
1.13816140898 -0.000309636924942 0.0
1.13457953274 0.00255209815896 0.0
1.12042066939 -0.0328751748045 0.0
1.13817956085 -0.000282513935847 0.0
1.13816415625 -0.000191037144742 0.0
1.13035360512 -0.00206823491475 0.0
1.13781529636 -5.24704493866e-05 0.0
1.12947128988 -0.00137363226801 0.0
1.12470709964 -0.00174115311663 0.0
1.12564018025 -0.000569510122923 0.0
1.11875325155 0.019931433362 0.0
1.12276290554 -0.00191149230087 0.0
1.12298104851 0.00425133816973 0.0
1.11925203818 0.00856490746329 0.0
1.12364305093 0.00407636062677 0.0
1.12355528771 0.00252210678868 0.0
1.12550718586 0.00150200252932 0.0
1.12316781692 0.00920927321495 0.0
1.12575224088 0.0035134351874 0.0
1.12837981982 0.00162749783977 0.0
1.13026098137 0.000493538915262 0.0
1.13037437524 0.000333304051711 0.0
1.13026911015 -0.000199591775378 0.0
1.13111564777 -0.000225020386209 0.0
1.1311583315 0.000348850805137 0.0
1.13106626971 0.000408787264422 0.0
1.13103261957 0.000411506719891 0.0
1.13103154481 0.000418615066687 0.0
1.13757872218 -0.000842315217849 0.0
1.13104616125 0.000433006723746 0.0
1.1310852043 0.00044015252336 0.0
1.13110727241 0.000548495842519 0.0
1.13087440105 0.00135095092687 0.0
1.1405913315 -0.00194853680186 0.0
1.03164986494 -0.0350307560329 0.0
1.14234933723 -0.00122994682871 0.0
1.14554187903 -0.00458006179302 0.0
1.15823264065 -0.00546103639957 0.0
1.14371760298 -0.00628519077723 0.0
1.13697920859 -0.00309720526202 0.0
1.09460247273 -0.00948025905154 0.0
1.12180729064 -0.0111239968273 0.0
1.11173753705 -0.0144157730812 0.0
1.1010975117 -0.0177977632421 0.0
1.17174198403 -0.0636889304203 0.0
1.05439781634 0.00208766467592 0.0
1.14194245567 -0.00104972305936 0.0
1.13625604617 -6.6144421821e-05 0.0
1.13614724166 5.84630890221e-05 0.0
1.12353536876 -0.0233544886199 0.0
1.13718511947 -7.17548060894e-05 0.0
1.07133734714 -0.0255376991798 0.0
1.1364814208 0.000464458180248 0.0
1.13757063577 7.44108132823e-05 0.0
1.13772870644 0.000176923800004 0.0
1.13804457994 0.00113394127985 0.0
1.03049162385 -0.000990956802178 0.0
1.13776373815 0.000187137897592 0.0
1.14481457118 0.00367559794779 0.0
1.13779363865 0.000203356337908 0.0
1.13780831695 0.00020621636677 0.0
1.14069237248 -0.00304357506651 0.0
1.13781888846 0.000214664902165 0.0
1.13775640967 0.000255204715967 0.0
1.13747217609 0.000302290765044 0.0
1.01803913753 -0.00260040873471 0.0
1.13533305224 -0.00065655904148 0.0
1.13712241478 0.000196873216319 0.0
1.03956012319 -0.00491468109824 0.0
0.999269514763 0.000603827842365 0.0
1.13819610819 -0.000907745607752 0.0
1.02318357079 -0.000765761375974 0.0
1.13585084563 0.00075647681428 0.0
1.14359328994 0.000329757514174 0.0
1.02270546273 -0.00100089614597 0.0
1.02238194876 -0.00102531989031 0.0
1.02210400605 -0.00101200128031 0.0
1.02186137895 -0.000991070058236 0.0
1.1383012201 0.00214464603378 0.0
1.1398775663 0.00205468409827 0.0
1.02164943575 -0.000975758852586 0.0
1.02145659609 -0.000948051659089 0.0
1.02138389084 -0.00104639773093 0.0
1.02224369474 -0.00216631344986 0.0
1.02293913391 -0.0011888893111 0.0
1.15237832955 0.00753297263676 0.0
1.13647545525 0.000372757881498 0.0
1.02280464355 -0.00100841735118 0.0
1.02242714824 -0.0010753953424 0.0
0.840135042442 0.0023515085578 0.0
1.01907520152 -0.000197989419689 0.0
0.998822182595 -0.00081978305009 0.0
1.01685748385 -8.38968587058e-05 0.0
1.00651362187 0.00513264691855 0.0
1.01257649962 0.00073220402926 0.0
1.00656717276 0.00840319675428 0.0
1.01602729621 -0.00114464038315 0.0
0.986593044363 0.020322541236 0.0
1.01482240663 -0.00153825649611 0.0
0.747074382575 0.00263548992108 0.0
0.900753582752 -0.00234882571622 0.0
0.867602114119 -0.0010632573165 0.0
1.1506589482 -0.00403805902937 0.0
1.13711580284 -0.000773520244748 0.0
1.13984261861 -0.00298263419913 0.0
1.16057968904 -0.000269061433153 0.0
1.13947054991 -0.00355002715995 0.0
1.14757358005 -0.00122382955068 0.0
0.98220342563 -0.0168226993045 0.0
1.11226467446 -0.0298237823338 0.0
1.14050207297 -0.000898802212918 0.0
1.03304482964 -0.0501927935361 0.0
1.15323073152 -0.00321000495239 0.0
1.14679813555 -0.00080080923132 0.0
1.03946160697 -0.0190797521381 0.0
0.887013298941 0.000781007714118 0.0
1.10465478276 -0.0783840630077 0.0
1.00294293425 -0.0605085315959 0.0
0.941877009397 -0.00906209257221 0.0
1.13616260885 -0.00010140135144 0.0
1.13593172515 9.14595487298e-07 0.0
1.13665141285 -0.000160174348715 0.0
1.13608327479 0.000178629681363 0.0
1.28324103279 -0.300360467751 0.0
1.13734022429 0.00057747707013 0.0
1.13694031483 -0.000101622347611 0.0
1.14121367757 0.00224022405967 0.0
1.13707234347 -3.21581569107e-05 0.0
1.13712447499 -3.43467920128e-05 0.0
1.14294037416 -0.000361959139243 0.0
1.13537002146 0.000273146316062 0.0
1.10072367407 -0.0194465696367 0.0
1.1374905688 0.00109196510942 0.0
1.14099269303 0.00125638058069 0.0
1.13715775263 -2.73018869415e-05 0.0
1.14595133033 0.00476224831553 0.0
1.13692090856 0.000637839308851 0.0
1.13600920501 -0.00386204482798 0.0
1.13675507689 -0.000341836599478 0.0
1.13717888408 -2.61602754834e-05 0.0
1.13718312078 -2.43385900575e-05 0.0
1.13713583359 6.72809317393e-06 0.0
1.1369087356 3.43065505619e-05 0.0
1.13677236047 -0.000292156534833 0.0
1.13877221883 -0.00101289689189 0.0
1.14960917487 -0.00875282623037 0.0
0.820111420191 0.00652801405244 0.0
0.819282430179 -0.00465734084669 0.0
0.861054046778 -0.0176231979539 0.0
0.822357409895 0.00168024893656 0.0
0.853900111542 0.00220770168883 0.0
0.853184982214 0.00201449919555 0.0
0.853053989204 0.00195116845336 0.0
1.17145215921 -0.0105260304879 0.0
0.853038478427 0.00194337187108 0.0
0.853067836816 0.00193304694518 0.0
0.853123613241 0.00192573999247 0.0
1.14335544113 0.000947576444828 0.0
1.14605343082 -0.00946636746947 0.0
0.853211928771 0.00192182983349 0.0
1.14610229033 -0.00203708834595 0.0
0.853335962859 0.00188027401478 0.0
0.854206352956 0.00121429993804 0.0
0.856507320581 0.00257003672958 0.0
0.856880212611 0.00275950922308 0.0
1.14464556775 0.00159850786978 0.0
0.857067167099 0.00276326160763 0.0
1.14496332834 0.00128775330348 0.0
0.858735775607 0.000949091626168 0.0
0.856214313898 0.00321238598741 0.0
1.1449143826 0.00120544008545 0.0
0.862368337381 -0.00293094260706 0.0
1.14487137083 0.00119714688088 0.0
0.865736836904 -0.000294089903609 0.0
0.851613661666 0.00495775395143 0.0
1.14483646301 0.00119586672636 0.0
0.866956727253 -0.00484547411519 0.0
0.805676894528 0.00548369202776 0.0
1.14480938273 0.00118970900413 0.0
0.837856447797 -0.00519813991797 0.0
1.14479600423 0.00120096418365 0.0
1.1448105966 0.00109133808503 0.0
0.856814253645 0.00388846122555 0.0
1.14434496261 0.000625787874772 0.0
1.14286486995 0.000710123633184 0.0
1.15046951918 -0.00316153007669 0.0
0.841659757129 0.00144872354809 0.0
0.855169669288 0.00309624971692 0.0
1.14238104137 0.000909855695349 0.0
1.14220097217 0.00116118923642 0.0
0.858325310876 -0.00136328281895 0.0
0.845483296809 0.0086815525323 0.0
1.14212251202 0.00252136690064 0.0
0.858483857342 -0.00258772714686 0.0
0.751066555991 0.00810694876873 0.0
1.14252066803 0.00684223139142 0.0
1.15744844015 0.00114109578948 0.0
0.840767153312 0.000279152238546 0.0
1.14122474544 -0.00444017072067 0.0
1.14096481593 0.00159203679058 0.0
1.14169256894 0.0034066858609 0.0
1.14862372814 0.00236039630868 0.0
1.14355479505 0.0146278859614 0.0
1.14163675531 0.001188486599 0.0
1.17515233259 0.00645530839207 0.0
1.14224489446 -0.00211583149819 0.0
1.14205521028 -0.00349512884993 0.0
1.16858797537 -0.0124628984806 0.0
1.18842135579 -0.0418141802274 0.0
1.17926665442 -0.0479847374337 0.0
1.14194390196 -0.000635422880446 0.0
1.15626045608 -0.00759038540784 0.0
1.1495449159 -0.00231665450935 0.0
1.14162095587 0.000687504142983 0.0
1.1666800713 0.0158258627662 0.0
1.14283180949 0.00585532762668 0.0
1.14162081092 0.00362622635994 0.0
1.14971565385 0.00353699246681 0.0
1.14152773972 0.000365770402826 0.0
0.86228770907 0.00243289726481 0.0
1.1405235763 -0.000273461279664 0.0
0.866913694444 0.0019757265761 0.0
0.806927618435 0.0130881827813 0.0
0.827196341464 -0.00195597875227 0.0
1.15378494866 0.00709884502968 0.0
0.863234318013 0.0052949732631 0.0
0.864806979419 -0.00117603046152 0.0
1.1426554139 0.00058719433358 0.0
1.14235700907 -0.000334244759557 0.0
0.846901113157 0.00398405370656 0.0
0.869808038415 -0.00235556555192 0.0
1.14283465658 -0.0014233670322 0.0
1.13692176629 5.25933001406e-05 0.0
1.14299823705 -0.00164342737644 0.0
1.14303381274 -0.00248608052498 0.0
0.843493992339 0.00478567298991 0.0
1.14486953448 -0.00242268436768 0.0
1.14495618907 -0.00228819388481 0.0
1.14496187684 -0.00222453005986 0.0
1.14499057425 -0.00221283882858 0.0
1.14503516666 -0.0022036763447 0.0
1.14508034808 -0.00218663306305 0.0
1.14519418664 -0.00217851138659 0.0
1.14405538782 -0.00341183801297 0.0
1.14508555966 -0.0020006577868 0.0
1.14469898886 -0.0019524798759 0.0
1.14766637656 -0.00387790165309 0.0
1.13626314297 -0.00108074072118 0.0
1.13726474121 1.71037062033e-05 0.0
0.843378064297 0.00442670412273 0.0
0.861212801646 -0.00269791181267 0.0
0.864139230694 -0.00309904831429 0.0
0.864134615329 -0.00314143650171 0.0
0.863876279249 -0.00324116796502 0.0
1.13732712847 -4.22044970954e-05 0.0
0.863882310057 -0.0029112390647 0.0
0.861066402194 -0.00257615732807 0.0
0.860696293404 -0.00228655704141 0.0
0.860629835142 -0.00227931307791 0.0
0.860574696187 -0.00227628363706 0.0
0.860556242805 -0.00227421576688 0.0
1.13733422424 -5.54399629275e-05 0.0
0.860570935504 -0.00226238304278 0.0
0.860628168515 -0.00224159534099 0.0
0.860856711343 -0.00213801665713 0.0
0.867026416662 0.000100671031441 0.0
1.13731685027 -6.66490043114e-05 0.0
1.13729058085 -7.30959664643e-05 0.0
1.14254170757 -0.00297462995943 0.0
1.13723816676 -8.08720291299e-05 0.0
1.15785817668 -0.00205563209866 0.0
1.1411791334 -0.00442750426001 0.0
1.13716762155 -0.000109221904169 0.0
1.0058898228 -0.0105579429197 0.0
1.07818931587 -0.0166919428679 0.0
1.13720906918 -0.000539210444804 0.0
1.13692618136 -0.000147236743648 0.0
1.22107855812 -0.0980049901504 0.0
1.13645918919 -0.000141153799109 0.0
1.13592044022 -6.70752814763e-05 0.0
1.14538352081 -0.00189421098803 0.0
1.13590608579 2.1036234862e-05 0.0
1.13663546314 0.000341569348272 0.0
1.14207431592 -0.000525103148142 0.0
1.13885246709 0.00107032965662 0.0
1.14580032331 0.00116481935579 0.0
1.12619203544 -0.010208291605 0.0
1.14163462775 -0.000972126291428 0.0
1.13516077609 -0.000131114617495 0.0
1.15545180763 0.00275796924438 0.0
1.13773643619 -0.000852443431169 0.0
1.13634132576 0.000620478227789 0.0
1.1422124125 0.00067166180449 0.0
1.13846868098 -2.01645123357e-05 0.0
1.13838980169 -0.000152935211569 0.0
1.138027054 -0.00164601184023 0.0
1.13849881169 -1.96388054941e-05 0.0
1.13803617995 -0.000357111823179 0.0