# vtk DataFile Version 2.0
2D Simulation Python
ASCII
DATASET UNSTRUCTURED_GRID
FIELD FieldData 1
NODES 1 2 int
2790 1289

POINTS 2790 double
0.0 1.0 0.0
1.725 1.0 0.0
8.275 1.0 0.0
20.0 1.0 0.0
20.0 0.0 0.0
0.0 0.0 0.0
0.1916666666663293 1.0 0.0
0.3833333333324708 1.0 0.0
0.574999999998553 1.0 0.0
0.7666666666645966 1.0 0.0
0.9583333333312576 1.0 0.0
1.149999999998384 1.0 0.0
1.341666666665662 1.0 0.0
1.533333333332819 1.0 0.0
0.0958333333331406 1.0 0.0
0.2874999999994247 1.0 0.0
0.4791666666655395 1.0 0.0
0.6708333333315728 1.0 0.0
0.8624999999976626 1.0 0.0
1.054166666664886 1.0 0.0
1.245833333332057 1.0 0.0
1.437499999999343 1.0 0.0
1.629166666666455 1.0 0.0
1.92348484848444 1.0 0.0
2.121969696968978 1.0 0.0
2.320454545453434 1.0 0.0
2.518939393937826 1.0 0.0
2.717424242422235 1.0 0.0
2.915909090906411 1.0 0.0
3.1143939393908 1.0 0.0
3.312878787875129 1.0 0.0
3.511363636359531 1.0 0.0
3.709848484843827 1.0 0.0
3.90833333332816 1.0 0.0
4.106818181812215 1.0 0.0
4.305303030296804 1.0 0.0
4.503787878781365 1.0 0.0
4.702272727265711 1.0 0.0
4.900757575750005 1.0 0.0
5.099242424235156 1.0 0.0
5.297727272720327 1.0 0.0
5.496212121205663 1.0 0.0
5.694696969690998 1.0 0.0
5.89318181817668 1.0 0.0
6.09166666666213 1.0 0.0
6.290151515147423 1.0 0.0
6.488636363633031 1.0 0.0
6.687121212118713 1.0 0.0
6.885606060604342 1.0 0.0
7.084090909089381 1.0 0.0
7.282575757574369 1.0 0.0
7.481060606059355 1.0 0.0
7.679545454544343 1.0 0.0
7.878030303029329 1.0 0.0
8.076515151514705 1.0 0.0
1.824242424242199 1.0 0.0
2.022727272726695 1.0 0.0
2.221212121211181 1.0 0.0
2.41969696969563 1.0 0.0
2.618181818180092 1.0 0.0
2.816666666664316 1.0 0.0
3.015151515148624 1.0 0.0
3.213636363633039 1.0 0.0
3.412121212117267 1.0 0.0
3.610606060601583 1.0 0.0
3.809090909085975 1.0 0.0
4.007575757570153 1.0 0.0
4.206060606054539 1.0 0.0
4.404545454539001 1.0 0.0
4.603030303023853 1.0 0.0
4.801515151507715 1.0 0.0
4.999999999992074 1.0 0.0
5.198484848477777 1.0 0.0
5.396969696963081 1.0 0.0
5.595454545448261 1.0 0.0
5.793939393933949 1.0 0.0
5.992424242419331 1.0 0.0
6.190909090904785 1.0 0.0
6.389393939390224 1.0 0.0
6.587878787875795 1.0 0.0
6.786363636361617 1.0 0.0
6.984848484846598 1.0 0.0
7.183333333331875 1.0 0.0
7.381818181816625 1.0 0.0
7.580303030301849 1.0 0.0
7.778787878786936 1.0 0.0
7.977272727272114 1.0 0.0
8.175757575757618 1.0 0.0
8.473728813558951 1.0 0.0
8.672457627118133 1.0 0.0
8.871186440676855 1.0 0.0
9.069915254236154 1.0 0.0
9.268644067794812 1.0 0.0
9.467372881354057 1.0 0.0
9.666101694912944 1.0 0.0
9.864830508471961 1.0 0.0
10.06355932203108 1.0 0.0
10.26228813558986 1.0 0.0
10.46101694914916 1.0 0.0
10.65974576270777 1.0 0.0
10.85847457626706 1.0 0.0
11.05720338982589 1.0 0.0
11.25593220338497 1.0 0.0
11.45466101694402 1.0 0.0
11.65338983050287 1.0 0.0
11.85211864406215 1.0 0.0
12.05084745762035 1.0 0.0
12.24957627117938 1.0 0.0
12.44830508473794 1.0 0.0
12.64703389829659 1.0 0.0
12.84576271185557 1.0 0.0
13.04449152541379 1.0 0.0
13.24322033897301 1.0 0.0
13.44194915253121 1.0 0.0
13.6406779660903 1.0 0.0
13.83940677964874 1.0 0.0
14.03813559320751 1.0 0.0
14.23686440676681 1.0 0.0
14.43559322032663 1.0 0.0
14.63432203388679 1.0 0.0
14.8330508474463 1.0 0.0
15.0317796610067 1.0 0.0
15.23050847456608 1.0 0.0
15.42923728812645 1.0 0.0
15.62796610168606 1.0 0.0
15.82669491524602 1.0 0.0
16.02542372880584 1.0 0.0
16.22415254236431 1.0 0.0
16.42288135592496 1.0 0.0
16.62161016948498 1.0 0.0
16.82033898304518 1.0 0.0
17.01906779660567 1.0 0.0
17.2177966101654 1.0 0.0
17.41652542372565 1.0 0.0
17.61525423728425 1.0 0.0
17.81398305084494 1.0 0.0
18.01271186440355 1.0 0.0
18.21144067796387 1.0 0.0
18.41016949152309 1.0 0.0
18.6088983050827 1.0 0.0
18.80762711864282 1.0 0.0
19.00635593220153 1.0 0.0
19.20508474576211 1.0 0.0
19.40381355932072 1.0 0.0
19.60254237288117 1.0 0.0
19.80127118644013 1.0 0.0
8.374364406779554 1.0 0.0
8.573093220338519 1.0 0.0
8.771822033897509 1.0 0.0
8.970550847456504 1.0 0.0
9.169279661015429 1.0 0.0
9.368008474574502 1.0 0.0
9.566737288133496 1.0 0.0
9.765466101692677 1.0 0.0
9.964194915251602 1.0 0.0
10.16292372881015 1.0 0.0
10.36165254236967 1.0 0.0
10.56038135592849 1.0 0.0
10.75911016948728 1.0 0.0
10.95783898304648 1.0 0.0
11.15656779660554 1.0 0.0
11.35529661016447 1.0 0.0
11.55402542372345 1.0 0.0
11.75275423728253 1.0 0.0
11.95148305084111 1.0 0.0
12.15021186439983 1.0 0.0
12.34894067795883 1.0 0.0
12.54766949151722 1.0 0.0
12.74639830507616 1.0 0.0
12.94512711863486 1.0 0.0
13.14385593219357 1.0 0.0
13.34258474575207 1.0 0.0
13.54131355931069 1.0 0.0
13.7400423728695 1.0 0.0
13.93877118642822 1.0 0.0
14.13749999998697 1.0 0.0
14.33622881354686 1.0 0.0
14.53495762710678 1.0 0.0
14.73368644066656 1.0 0.0
14.93241525422655 1.0 0.0
15.13114406778625 1.0 0.0
15.32987288134641 1.0 0.0
15.52860169490635 1.0 0.0
15.7273305084661 1.0 0.0
15.9260593220261 1.0 0.0
16.12478813558534 1.0 0.0
16.32351694914468 1.0 0.0
16.52224576270527 1.0 0.0
16.72097457626511 1.0 0.0
16.91970338982543 1.0 0.0
17.11843220338561 1.0 0.0
17.31716101694539 1.0 0.0
17.51588983050497 1.0 0.0
17.71461864406449 1.0 0.0
17.91334745762401 1.0 0.0
18.11207627118383 1.0 0.0
18.31080508474307 1.0 0.0
18.50953389830311 1.0 0.0
18.70826271186271 1.0 0.0
18.90699152542239 1.0 0.0
19.10572033898203 1.0 0.0
19.30444915254171 1.0 0.0
19.50317796610107 1.0 0.0
19.70190677966065 1.0 0.0
19.90063559322003 1.0 0.0
20.0 0.7999999999999998 0.0
20.0 0.6000000000013869 0.0
20.0 0.4000000000016644 0.0
20.0 0.2000000000008322 0.0
20.0 0.9000000000000369 0.0
20.0 0.7000000000005904 0.0
20.0 0.5000000000017577 0.0
20.0 0.3000000000012483 0.0
20.0 0.1000000000004161 0.0
19.8 0.0 0.0
19.6 0.0 0.0
19.4 0.0 0.0
19.2 0.0 0.0
19.0 0.0 0.0
18.8 0.0 0.0
18.6 0.0 0.0
18.4 0.0 0.0
18.2 0.0 0.0
18.0 0.0 0.0
17.8 0.0 0.0
17.59999999999999 0.0 0.0
17.4 0.0 0.0
17.2 0.0 0.0
16.99999999999999 0.0 0.0
16.79999999999999 0.0 0.0
16.59999999999999 0.0 0.0
16.4 0.0 0.0
16.2 0.0 0.0
15.99999999999999 0.0 0.0
15.79999999999999 0.0 0.0
15.59999999999999 0.0 0.0
15.4 0.0 0.0
15.2 0.0 0.0
15.0 0.0 0.0
14.79999999999999 0.0 0.0
14.59999999999999 0.0 0.0
14.4 0.0 0.0
14.2 0.0 0.0
13.99999999999999 0.0 0.0
13.8 0.0 0.0
13.59999999999999 0.0 0.0
13.4 0.0 0.0
13.2 0.0 0.0
13.0 0.0 0.0
12.79999999999999 0.0 0.0
12.6 0.0 0.0
12.4 0.0 0.0
12.2 0.0 0.0
11.99999999999999 0.0 0.0
11.8 0.0 0.0
11.6 0.0 0.0
11.4 0.0 0.0
11.2 0.0 0.0
11.0 0.0 0.0
10.8 0.0 0.0
10.6 0.0 0.0
10.4 0.0 0.0
10.2 0.0 0.0
9.999999999999998 0.0 0.0
9.799999999999995 0.0 0.0
9.599999999999998 0.0 0.0
9.399999999999997 0.0 0.0
9.199999999999998 0.0 0.0
8.999999999999996 0.0 0.0
8.799999999999997 0.0 0.0
8.599999999999996 0.0 0.0
8.399999999999999 0.0 0.0
8.199999999999996 0.0 0.0
7.999999999999998 0.0 0.0
7.799999999999997 0.0 0.0
7.599999999999998 0.0 0.0
7.399999999999999 0.0 0.0
7.199999999999998 0.0 0.0
6.999999999999995 0.0 0.0
6.799999999999995 0.0 0.0
6.599999999999998 0.0 0.0
6.399999999999997 0.0 0.0
6.199999999999996 0.0 0.0
5.999999999999998 0.0 0.0
5.799999999999999 0.0 0.0
5.599999999999996 0.0 0.0
5.399999999999995 0.0 0.0
5.199999999999996 0.0 0.0
4.999999999999998 0.0 0.0
4.799999999999997 0.0 0.0
4.599999999999998 0.0 0.0
4.399999999999999 0.0 0.0
4.199999999999999 0.0 0.0
3.999999999999996 0.0 0.0
3.799999999999997 0.0 0.0
3.599999999999998 0.0 0.0
3.399999999999999 0.0 0.0
3.199999999999999 0.0 0.0
3.0 0.0 0.0
2.800000000000001 0.0 0.0
2.599999999999998 0.0 0.0
2.399999999999999 0.0 0.0
2.199999999999996 0.0 0.0
1.999999999999996 0.0 0.0
1.800000000000001 0.0 0.0
1.599999999999998 0.0 0.0
1.399999999999999 0.0 0.0
1.200000000000003 0.0 0.0
1.0 0.0 0.0
0.7999999999999972 0.0 0.0
0.5999999999999979 0.0 0.0
0.3999999999999986 0.0 0.0
0.1999999999999993 0.0 0.0
19.90000000000022 0.0 0.0
19.69999999999997 0.0 0.0
19.49999999999987 0.0 0.0
19.30000000000005 0.0 0.0
19.09999999999999 0.0 0.0
18.89999999999987 0.0 0.0
18.7 0.0 0.0
18.49999999999999 0.0 0.0
18.30000000000001 0.0 0.0
18.09999999999987 0.0 0.0
17.90000000000013 0.0 0.0
17.7 0.0 0.0
17.49999999999987 0.0 0.0
17.30000000000025 0.0 0.0
17.10000000000001 0.0 0.0
16.90000000000005 0.0 0.0
16.70000000000003 0.0 0.0
16.50000000000006 0.0 0.0
16.29999999999997 0.0 0.0
16.09999999999999 0.0 0.0
15.89999999999987 0.0 0.0
15.69999999999999 0.0 0.0
15.49999999999999 0.0 0.0
15.3 0.0 0.0
15.10000000000003 0.0 0.0
14.90000000000005 0.0 0.0
14.69999999999992 0.0 0.0
14.49999999999996 0.0 0.0
14.29999999999999 0.0 0.0
14.10000000000008 0.0 0.0
13.89999999999988 0.0 0.0
13.70000000000003 0.0 0.0
13.50000000000004 0.0 0.0
13.29999999999992 0.0 0.0
13.09999999999995 0.0 0.0
12.90000000000016 0.0 0.0
12.7 0.0 0.0
12.49999999999986 0.0 0.0
12.30000000000003 0.0 0.0
12.10000000000016 0.0 0.0
11.90000000000005 0.0 0.0
11.69999999999994 0.0 0.0
11.49999999999993 0.0 0.0
11.30000000000005 0.0 0.0
11.0999999999999 0.0 0.0
10.90000000000004 0.0 0.0
10.69999999999995 0.0 0.0
10.50000000000012 0.0 0.0
10.29999999999999 0.0 0.0
10.09999999999993 0.0 0.0
9.900000000000077 0.0 0.0
9.699999999999969 0.0 0.0
9.499999999999982 0.0 0.0
9.299999999999969 0.0 0.0
9.100000000000108 0.0 0.0
8.899999999999972 0.0 0.0
8.699999999999958 0.0 0.0
8.499999999999998 0.0 0.0
8.30000000000003 0.0 0.0
8.099999999999977 0.0 0.0
7.899999999999974 0.0 0.0
7.700000000000166 0.0 0.0
7.499999999999854 0.0 0.0
7.299999999999997 0.0 0.0
7.100000000000019 0.0 0.0
6.900000000000002 0.0 0.0
6.699999999999974 0.0 0.0
6.500000000000037 0.0 0.0
6.299999999999981 0.0 0.0
6.100000000000014 0.0 0.0
5.899999999999949 0.0 0.0
5.700000000000049 0.0 0.0
5.499999999999956 0.0 0.0
5.300000000000118 0.0 0.0
5.100000000000005 0.0 0.0
4.900000000000109 0.0 0.0
4.699999999999982 0.0 0.0
4.499999999999936 0.0 0.0
4.300000000000137 0.0 0.0
4.100000000000012 0.0 0.0
3.899999999999888 0.0 0.0
3.69999999999974 0.0 0.0
3.500000000000046 0.0 0.0
3.299999999999965 0.0 0.0
3.099999999999817 0.0 0.0
2.900000000000066 0.0 0.0
2.699999999999793 0.0 0.0
2.500000000000064 0.0 0.0
2.299999999999823 0.0 0.0
[...]
POINT_DATA 2790
VECTORS vector double
1.0 0.0 0.0
0.0 0.0 0.0
0.0 0.0 0.0
0.0 0.0 0.0
1.54705026285 0.0 0.0
1.0 0.0 0.0
0.0 0.0 0.0
0.0 0.0 0.0
0.0 0.0 0.0
0.0 0.0 0.0
0.0 0.0 0.0
0.0 0.0 0.0
0.0 0.0 0.0
0.0 0.0 0.0
0.0 0.0 0.0
0.0 0.0 0.0
0.0 0.0 0.0
0.0 0.0 0.0
0.0 0.0 0.0
0.0 0.0 0.0
0.0 0.0 0.0
0.0 0.0 0.0
0.0 0.0 0.0
0.0 0.0 0.0
0.0 0.0 0.0
0.0 0.0 0.0
0.0 0.0 0.0
0.0 0.0 0.0
0.0 0.0 0.0
0.0 0.0 0.0
0.0 0.0 0.0
0.0 0.0 0.0
0.0 0.0 0.0
0.0 0.0 0.0
0.0 0.0 0.0
0.0 0.0 0.0
0.0 0.0 0.0
0.0 0.0 0.0
0.0 0.0 0.0
0.0 0.0 0.0
0.0 0.0 0.0
0.0 0.0 0.0
0.0 0.0 0.0
0.0 0.0 0.0
0.0 0.0 0.0
0.0 0.0 0.0
0.0 0.0 0.0
0.0 0.0 0.0
0.0 0.0 0.0
0.0 0.0 0.0
0.0 0.0 0.0
0.0 0.0 0.0
0.0 0.0 0.0
0.0 0.0 0.0
0.0 0.0 0.0
0.0 0.0 0.0
0.0 0.0 0.0
0.0 0.0 0.0
0.0 0.0 0.0
0.0 0.0 0.0
0.0 0.0 0.0
0.0 0.0 0.0
0.0 0.0 0.0
0.0 0.0 0.0
0.0 0.0 0.0
0.0 0.0 0.0
0.0 0.0 0.0
0.0 0.0 0.0
0.0 0.0 0.0
0.0 0.0 0.0
0.0 0.0 0.0
0.0 0.0 0.0
0.0 0.0 0.0
0.0 0.0 0.0
0.0 0.0 0.0
0.0 0.0 0.0
0.0 0.0 0.0
0.0 0.0 0.0
0.0 0.0 0.0
0.0 0.0 0.0
0.0 0.0 0.0
0.0 0.0 0.0
0.0 0.0 0.0
0.0 0.0 0.0
0.0 0.0 0.0
0.0 0.0 0.0
0.0 0.0 0.0
0.0 0.0 0.0
0.0 0.0 0.0
0.0 0.0 0.0
0.0 0.0 0.0
0.0 0.0 0.0
0.0 0.0 0.0
0.0 0.0 0.0
0.0 0.0 0.0
0.0 0.0 0.0
0.0 0.0 0.0
0.0 0.0 0.0
0.0 0.0 0.0
0.0 0.0 0.0
0.0 0.0 0.0
0.0 0.0 0.0
0.0 0.0 0.0
0.0 0.0 0.0
0.0 0.0 0.0
0.0 0.0 0.0
0.0 0.0 0.0
0.0 0.0 0.0
0.0 0.0 0.0
0.0 0.0 0.0
0.0 0.0 0.0
0.0 0.0 0.0
0.0 0.0 0.0
0.0 0.0 0.0
0.0 0.0 0.0
0.0 0.0 0.0
0.0 0.0 0.0
0.0 0.0 0.0
0.0 0.0 0.0
0.0 0.0 0.0
0.0 0.0 0.0
0.0 0.0 0.0
0.0 0.0 0.0
0.0 0.0 0.0
0.0 0.0 0.0
0.0 0.0 0.0
0.0 0.0 0.0
0.0 0.0 0.0
0.0 0.0 0.0
0.0 0.0 0.0
0.0 0.0 0.0
0.0 0.0 0.0
0.0 0.0 0.0
0.0 0.0 0.0
0.0 0.0 0.0
0.0 0.0 0.0
0.0 0.0 0.0
0.0 0.0 0.0
0.0 0.0 0.0
0.0 0.0 0.0
0.0 0.0 0.0
0.0 0.0 0.0
0.0 0.0 0.0
0.0 0.0 0.0
0.0 0.0 0.0
0.0 0.0 0.0
0.0 0.0 0.0
0.0 0.0 0.0
0.0 0.0 0.0
0.0 0.0 0.0
0.0 0.0 0.0
0.0 0.0 0.0
0.0 0.0 0.0
0.0 0.0 0.0
0.0 0.0 0.0
0.0 0.0 0.0
0.0 0.0 0.0
0.0 0.0 0.0
0.0 0.0 0.0
0.0 0.0 0.0
0.0 0.0 0.0
0.0 0.0 0.0
0.0 0.0 0.0
0.0 0.0 0.0
0.0 0.0 0.0
0.0 0.0 0.0
0.0 0.0 0.0
0.0 0.0 0.0
0.0 0.0 0.0
0.0 0.0 0.0
0.0 0.0 0.0
0.0 0.0 0.0
0.0 0.0 0.0
0.0 0.0 0.0
0.0 0.0 0.0
0.0 0.0 0.0
0.0 0.0 0.0
0.0 0.0 0.0
0.0 0.0 0.0
0.0 0.0 0.0
0.0 0.0 0.0
0.0 0.0 0.0
0.0 0.0 0.0
0.0 0.0 0.0
0.0 0.0 0.0
0.0 0.0 0.0
0.0 0.0 0.0
0.0 0.0 0.0
0.0 0.0 0.0
0.0 0.0 0.0
0.0 0.0 0.0
0.0 0.0 0.0
0.0 0.0 0.0
0.0 0.0 0.0
0.0 0.0 0.0
0.0 0.0 0.0
0.0 0.0 0.0
0.0 0.0 0.0
0.0 0.0 0.0
0.0 0.0 0.0
0.0 0.0 0.0
0.0 0.0 0.0
0.0 0.0 0.0
0.0 0.0 0.0
0.0 0.0 0.0
0.556455410849 -1.12349764281e-05 0.0
0.973363157832 0.000204794425595 0.0
1.25496981737 -0.00011080815413 0.0
1.42975448842 -0.000168171232705 0.0
0.283984029688 0.000241774495839 0.0
0.770337603599 0.00137604509289 0.0
1.11914149839 0.00013129262209 0.0
1.34492111626 -0.000669274355899 0.0
1.48730202416 -0.000261258017013 0.0
1.54621135573 0.0 0.0
1.54649673989 0.0 0.0
1.54679108776 0.0 0.0
1.54715743601 0.0 0.0
1.54646534547 0.0 0.0
1.54758894797 0.0 0.0
1.54772766516 0.0 0.0
1.54713986096 0.0 0.0
1.54770931946 0.0 0.0
1.54775810116 0.0 0.0
1.54717937063 0.0 0.0
1.5477314277 0.0 0.0
1.547748745 0.0 0.0
1.54708176722 0.0 0.0
1.5458728848 0.0 0.0
1.5455968499 0.0 0.0
1.54605387637 0.0 0.0
1.54423237517 0.0 0.0
1.54296458596 0.0 0.0
1.54235061711 0.0 0.0
1.53950070768 0.0 0.0
1.53730768004 0.0 0.0
1.53602397641 0.0 0.0
1.53277463144 0.0 0.0
1.5304230037 0.0 0.0
1.52913120659 0.0 0.0
1.5258642518 0.0 0.0
1.52348981135 0.0 0.0
1.5221179026 0.0 0.0
1.51867613144 0.0 0.0
1.51607624888 0.0 0.0
1.51446558836 0.0 0.0
1.51074435549 0.0 0.0
1.5078321021 0.0 0.0
1.50592460068 0.0 0.0
1.50184168371 0.0 0.0
1.49858601441 0.0 0.0
1.49639329639 0.0 0.0
1.49160197909 0.0 0.0
1.48772125002 0.0 0.0
1.48522355226 0.0 0.0
1.48045669985 0.0 0.0
1.4762488986 0.0 0.0
1.47339602238 0.0 0.0
1.4682522134 0.0 0.0
1.46366525301 0.0 0.0
1.46050019446 0.0 0.0
1.4550422353 0.0 0.0
1.45006813088 0.0 0.0
1.44653830513 0.0 0.0
1.44086189376 0.0 0.0
1.43555459239 0.0 0.0
1.43148316863 0.0 0.0
1.42830502596 0.0 0.0
1.42188232499 0.0 0.0
1.41531509889 0.0 0.0
1.40972938559 0.0 0.0
1.40494323019 0.0 0.0
1.39865177165 0.0 0.0
1.39288989975 0.0 0.0
1.38848853997 0.0 0.0
1.38191279758 0.0 0.0
1.37580248175 0.0 0.0
1.37114437199 0.0 0.0
1.36422783075 0.0 0.0
1.35787310299 0.0 0.0
1.35290469293 0.0 0.0
1.34579901006 0.0 0.0
1.33906880292 0.0 0.0
1.33348281602 0.0 0.0
1.32822610554 0.0 0.0
1.32003814053 0.0 0.0
1.31315374439 0.0 0.0
1.30543503679 0.0 0.0
1.29699043717 0.0 0.0
1.28973877419 0.0 0.0
1.28077560102 0.0 0.0
1.27197982865 0.0 0.0
1.26390011951 0.0 0.0
1.25593588508 0.0 0.0
1.24680247383 0.0 0.0
1.23797631278 0.0 0.0
1.22919304444 0.0 0.0
1.21958748341 0.0 0.0
1.20998748676 0.0 0.0
1.20013088696 0.0 0.0
1.18977517883 0.0 0.0
1.17904501073 0.0 0.0
1.16780693812 0.0 0.0
1.15631022548 0.0 0.0
1.14384309102 0.0 0.0
1.13035455289 0.0 0.0
1.11636773363 0.0 0.0
1.10036790075 0.0 0.0
1.08252138601 0.0 0.0
1.06316880384 0.0 0.0
1.04112902008 0.0 0.0
1.0201182489 0.0 0.0
1.00389020948 0.0 0.0
1.54630901881 0.0 0.0
1.54568636471 0.0 0.0
1.54729912302 0.0 0.0
1.54596178645 0.0 0.0
1.54608055847 0.0 0.0
1.54662073878 0.0 0.0
1.54828996456 0.0 0.0
1.54680606571 0.0 0.0
1.54674354169 0.0 0.0
1.54829426089 0.0 0.0
1.54681589324 0.0 0.0
1.54674112722 0.0 0.0
1.54830835782 0.0 0.0
1.54679053001 0.0 0.0
1.54665123379 0.0 0.0
1.54524922034 0.0 0.0
1.54605588518 0.0 0.0
1.54529030351 0.0 0.0
1.54297307316 0.0 0.0
1.5427972697 0.0 0.0
1.54090928934 0.0 0.0
1.53762732508 0.0 0.0
1.53671160515 0.0 0.0
1.53432576021 0.0 0.0
1.53076174081 0.0 0.0
1.52980753057 0.0 0.0
1.52743857248 0.0 0.0
1.52383765539 0.0 0.0
1.52283855094 0.0 0.0
1.52032493207 0.0 0.0
1.51650867006 0.0 0.0
1.51529289615 0.0 0.0
1.51250301681 0.0 0.0
1.50837876644 0.0 0.0
1.50687640801 0.0 0.0
1.50375744093 0.0 0.0
1.49931877448 0.0 0.0
1.49743883539 0.0 0.0
1.49385800985 0.0 0.0
1.48880167713 0.0 0.0
1.48612072186 0.0 0.0
1.48286665375 0.0 0.0
1.47748724884 0.0 0.0
1.47443927067 0.0 0.0
1.47082580024 0.0 0.0
1.46504779948 0.0 0.0
1.46166811719 0.0 0.0
1.45772745114 0.0 0.0
1.45161938893 0.0 0.0
1.44781472988 0.0 0.0
1.44364617173 0.0 0.0
1.437263398 0.0 0.0
1.43304493427 0.0 0.0
1.42852873768 0.0 0.0
1.42410521948 0.0 0.0
1.41817665433 0.0 0.0
1.41148397384 0.0 0.0
1.40687255273 0.0 0.0
1.40166667591 0.0 0.0
1.39491238649 0.0 0.0
1.39019549476 0.0 0.0
1.38515076747 0.0 0.0
1.37789875502 0.0 0.0
1.37297378778 0.0 0.0
1.36762097066 0.0 0.0
1.36011024555 0.0 0.0
1.35489324562 0.0 0.0
1.34929839034 0.0 0.0
1.34158351089 0.0 0.0
1.33589844172 0.0 0.0
1.32964373373 0.0 0.0
1.32319322777 0.0 0.0
1.31598360984 0.0 0.0
1.30865017825 0.0 0.0
1.30066562845 0.0 0.0
1.29277954857 0.0 0.0
1.28403679339 0.0 0.0
1.27600260928 0.0 0.0
1.26745020311 0.0 0.0
1.25982000716 0.0 0.0
1.25088762432 0.0 0.0
1.24199954406 0.0 0.0
1.23345147787 0.0 0.0
1.22403123919 0.0 0.0
1.2145804022 0.0 0.0
1.20492925007 0.0 0.0
1.19473666298 0.0 0.0
1.184388284 0.0 0.0
1.17332559809 0.0 0.0
1.1620115952 0.0 0.0
1.15026267489 0.0 0.0
1.13705711293 0.0 0.0
1.12349807858 0.0 0.0
1.10876122907 0.0 0.0
1.09148045907 0.0 0.0
1.07320628133 0.0 0.0
1.05266291126 0.0 0.0
1.03061920725 0.0 0.0
1.01157044198 0.0 0.0
0.998780128196 0.0 0.0
1.0 0.0 0.0
1.0 0.0 0.0
1.0 0.0 0.0
1.0 0.0 0.0
1.0 0.0 0.0
1.0 0.0 0.0
1.0 0.0 0.0
1.0 0.0 0.0
1.0 0.0 0.0
1.16618377373 -0.0714621257892 0.0
1.22387472634 -0.0465174503409 0.0
1.22844562146 -0.031392098375 0.0
1.09893979593 3.40163214379e-05 0.0
1.13449389966 -9.99066230702e-05 0.0
1.13344738615 -2.07616914237e-05 0.0
1.13049229242 6.59095741862e-05 0.0
1.12844308008 -1.96979908141e-05 0.0
1.12871274661 -0.000402416464197 0.0
1.12957838888 -0.000972047327273 0.0
1.13109571227 -0.00138994969649 0.0
1.13276777484 -0.00157366547219 0.0
1.13454185194 -0.0017063225187 0.0
1.13653597081 -0.00187303953365 0.0
1.13882607721 -0.00208491749964 0.0
1.09410754729 -0.0021236322001 0.0
1.09747228655 -0.00235282137478 0.0
1.10133569439 -0.00269123039221 0.0
1.10561172952 -0.0030596249981 0.0
1.16121862167 -0.00449606380494 0.0
1.22173877973 -0.0230401640187 0.0
1.1322549277 -0.00455574167517 0.0
1.11035574615 -0.00335441525473 0.0
1.20880936271 -0.0176474711819 0.0
1.13953742722 -0.00512389557306 0.0
1.15192424153 -0.00405679031336 0.0
1.1956604427 -0.013994044383 0.0
1.14780836197 -0.00559311249216 0.0
1.18333497333 -0.0114565882615 0.0
1.18519012409 -0.00685525573809 0.0
1.1959464432 -0.0107305336699 0.0
1.15823165842 -0.00449724545397 0.0
1.17318783335 -0.00993128077727 0.0
0.898443873195 -0.000672405016423 0.0
1.20434927385 -0.139676411908 0.0
1.2936265121 -0.0107752556003 0.0
1.28156755226 -0.0126258931596 0.0
1.31250050978 -0.00730472232644 0.0
1.26699432179 -0.0148027915809 0.0
1.31353515837 -0.00650249918874 0.0
1.21717992883 -0.0210300438903 0.0
1.24643964085 -0.0175853764365 0.0
1.31596258971 -0.00598176548065 0.0
1.31767573962 -0.00540203442896 0.0
1.32098001807 -0.00471035237283 0.0
1.32193004001 -0.00423251990842 0.0
1.32240126062 -0.00387840206628 0.0
1.3227426357 -0.00345378786371 0.0
1.32285028246 -0.00306489976125 0.0
1.31398872635 -0.0027795070741 0.0
1.3138771591 -0.00242718730966 0.0
1.31390244033 -0.0021711769412 0.0
1.20886098727 -0.0519136278495 0.0
1.31389796589 -0.0019833570778 0.0
1.31392673707 -0.00185031513254 0.0
1.31368491513 -0.00163133397548 0.0
1.17600228566 -0.0255966074556 0.0
1.31303623582 -0.00103149256664 0.0
1.14049013319 -0.0288227315113 0.0
1.12793768623 -0.0334766656487 0.0
1.31081648537 -0.000280885359589 0.0
1.31081566568 -5.04164461438e-05 0.0
0.855802487049 -4.26247966387e-05 0.0
1.31067329849 6.15819436386e-05 0.0
0.855423810723 -0.000225331824057 0.0
0.976441356052 -0.00722874226207 0.0
0.996168603678 -0.00861502794759 0.0
0.935929422321 -0.00328103614861 0.0
1.08913213863 -0.0194767307578 0.0
1.01994889581 -0.0109384270182 0.0
0.923671723326 -0.00353805013241 0.0
1.04999296916 -0.0144770160733 0.0
0.913445442023 -0.00326071817183 0.0
0.904150694134 -0.00274594888892 0.0
0.89622049524 -0.00225056058045 0.0
0.889827545771 -0.00231786153599 0.0
0.884047492585 -0.00206331830986 0.0
0.878844691925 -0.00181098026457 0.0
0.874273097749 -0.00160558837571 0.0
0.870338788883 -0.00134577827745 0.0
0.866782887263 -0.00125587489391 0.0
0.863680265015 -0.00111739910468 0.0
0.860823198033 -0.00102972276215 0.0
0.858225918648 -0.000938665911182 0.0
0.856033653114 -0.00075033126625 0.0
1.31478716059 -2.51972486452e-05 0.0
0.854592754673 -0.000425462085188 0.0
0.85401904685 -0.000130538245124 0.0
0.85405722222 1.48507164785e-05 0.0
0.854224535066 5.45006164516e-05 0.0
1.33078365584 9.12827368117e-05 0.0
1.0352765615 -0.0353317878256 0.0
1.33559235353 0.000358808187202 0.0
1.32057102376 -0.00507177707666 0.0
1.31366654356 -0.00839894264629 0.0
1.30485399968 -0.00968489842028 0.0
1.33150382128 -0.00534179834976 0.0
0.841325948694 -0.0034081487419 0.0
0.881027666041 -0.00234491369444 0.0
0.897931153239 -0.00350008120583 0.0
0.907376638551 -0.00792879106607 0.0
1.17825434765 -0.0767223630463 0.0
1.03997975569 -0.0279307381559 0.0
1.33755010453 -0.000191481232359 0.0
1.38509502323 -0.0027210094921 0.0
1.3822962594 -0.00307012741784 0.0
1.13771567985 -0.0209855420655 0.0
1.37485150323 -0.00261053407339 0.0
1.07463549229 -0.0283932182321 0.0
1.37890489774 -0.00341027869014 0.0
1.37649115736 -0.00232153158392 0.0
1.37795682732 -0.00209027144009 0.0
1.37044327814 -0.00385396288758 0.0
0.952469648282 -0.0158563892884 0.0
1.37938099754 -0.0019233874717 0.0
1.36656868573 -0.00421230069786 0.0
1.38065640177 -0.00181353717504 0.0
1.3813803601 -0.00148858424804 0.0
1.18390819546 -0.0169219857629 0.0
1.38148196674 -0.000757422599292 0.0
1.37203656022 -0.000144714413772 0.0
1.41594956768 1.97155512969e-05 0.0
0.632665654411 0.000115964566081 0.0
1.35550817398 -0.00480621303555 0.0
1.41278560119 -3.61955631708e-05 0.0
0.648060513783 8.54735790266e-05 0.0
0.606669467458 0.000462293117423 0.0
1.4128185406 -4.17539566239e-05 0.0
0.63018885582 0.000347002980458 0.0
1.35100015705 -0.00514026219249 0.0
1.22025844278 -0.0143634919529 0.0
0.629691138257 0.000305813758608 0.0
0.629579060725 0.000187324748439 0.0
0.630090827302 3.47827622428e-05 0.0
0.631417561538 -7.71123518806e-05 0.0
1.34422667994 -0.00555413271988 0.0
1.25002532348 -0.0124396027732 0.0
0.63332200842 -0.000116207808558 0.0
0.635534837575 -0.000142677932599 0.0
0.637980677477 -0.000192950586567 0.0
0.64062010237 -0.00023070118953 0.0
0.644321134197 -0.00044990203348 0.0
1.33569113276 -0.00608765184888 0.0
1.27364313534 -0.0108609552424 0.0
0.647828554661 -0.00052632715251 0.0
0.651907737534 -0.000642431506228 0.0
0.522034727143 -0.000511226114245 0.0
0.656610502671 -0.000765337791383 0.0
0.842839315476 -0.00835857615451 0.0
0.680850746515 -0.000970397770524 0.0
0.804332529548 -0.00592099472717 0.0
0.689061204624 -0.00118160268441 0.0
0.661611087411 -0.000840791951133 0.0
0.775782470927 -0.0044620009373 0.0
0.697675339173 -0.00103580747527 0.0
0.753479195321 -0.00343849671915 0.0
0.545808282118 0.000212024184165 0.0
0.63155040541 -0.00242662765034 0.0
0.565018337491 -0.0003115823302 0.0
1.32392992339 -0.00610419529791 0.0
1.29281599342 -0.00959422898205 0.0
1.30608921451 -0.00885508093259 0.0
1.33029518409 -0.00687461404906 0.0
1.35963439575 -0.00464418357513 0.0
1.36776641614 -0.00438630614425 0.0
0.650032567963 -0.00283727059073 0.0
0.861940569907 -0.0077551268619 0.0
1.41481463653 -5.31024622728e-05 0.0
1.04237306077 -0.0577833844639 0.0
1.13012414714 -9.81560331133e-05 0.0
1.19488266322 -0.000168184484379 0.0
1.04215264356 -0.0184103684093 0.0
0.528530424685 0.000150713893772 0.0
1.10470852714 -0.070771598199 0.0
1.03008634704 -0.0587884798922 0.0
0.577580093999 -0.00142925532243 0.0
1.42691726861 -0.00233471922866 0.0
1.42292501557 -0.00266647349543 0.0
1.42963362569 -0.00194478868512 0.0
1.41747542925 -0.0029455291378 0.0
1.27549938858 -0.293357724218 0.0
1.41082318725 -0.00327644723008 0.0
1.43328633824 -0.00171445373368 0.0
1.40400124043 -0.00344185330902 0.0
1.43657402581 -0.00153855871387 0.0
1.43964500418 -0.00142618910393 0.0
1.19578818293 -0.00998991080242 0.0
1.37338216465 -0.00421067714093 0.0
1.10815272417 -0.0152150041693 0.0
1.36318461751 -0.00453345295764 0.0
1.22967037262 -0.00882506938918 0.0
1.44246354089 -0.00137933667693 0.0
1.35183959814 -0.00480445884745 0.0
1.25844066886 -0.00781386395596 0.0
1.15606165389 -0.011719948325 0.0
1.28294456099 -0.00701472495616 0.0
1.44456733104 -0.00106893830959 0.0
1.44438674192 -0.000395730196345 0.0
1.44359106702 2.46860891596e-05 0.0
1.44072959311 0.000378917709534 0.0
1.44216266422 0.000314559782656 0.0
1.44346262353 0.000269427235599 0.0
1.16269141374 -0.00438399482439 0.0
0.757009517332 -0.00992743051366 0.0
0.811014200173 -0.0163419069172 0.0
0.869464289947 -0.0226587960706 0.0
0.726244796481 -0.00886037176346 0.0
0.497403946245 -0.000258414436277 0.0
0.497190074495 -0.000247195678211 0.0
0.49716669095 -0.000306824747172 0.0
1.20809383348 -0.00842958954968 0.0
0.497652211964 -0.000430299427897 0.0
0.49882711381 -0.000533557994167 0.0
0.500554043615 -0.000576402033388 0.0
1.1340221864 0.00024802528012 0.0
1.2124038796 -0.010862786573 0.0
0.502567888317 -0.000600558435983 0.0
1.13427660353 0.000206256080016 0.0
0.5047760983 -0.000636785444434 0.0
0.507218128449 -0.000708490743403 0.0
0.509760939064 -0.000359293640133 0.0
0.512769737238 -0.000419612953009 0.0
1.12155613501 0.000132927836845 0.0
0.516291911695 -0.00048743592521 0.0
1.12133212949 0.000545735693235 0.0
0.505393351456 -8.01861537243e-05 0.0
0.520336573198 -0.000582719879107 0.0
1.12121921488 0.000202629116045 0.0
0.507548443534 -0.000390680081695 0.0
1.1222470762 -0.000330542477322 0.0
0.504218026497 -0.000663577488126 0.0
0.524879266549 -0.00074162172719 0.0
1.12361392019 -0.00083607132915 0.0
0.504829702491 -0.000552986664168 0.0
0.515587055187 -0.000370919998896 0.0
1.12525665966 -0.00107009123738 0.0
0.696872271296 -0.00797904034613 0.0
1.12696042474 -0.00119103091766 0.0
1.12886727815 -0.00132893781934 0.0
0.543407718308 -0.000586524167203 0.0
1.13094922721 -0.00151586649292 0.0
1.13073271868 -0.00188429548952 0.0
1.22960514828 -0.0262637715505 0.0
0.660441212038 -0.00539551701765 0.0
0.550349005731 -0.00107414738851 0.0
1.13155267818 -0.00200705030619 0.0
1.13499213545 -0.00233047684037 0.0
0.634205659468 -0.00417015726419 0.0
0.557853681961 -0.00115225226891 0.0
1.13880753152 -0.00267515684407 0.0
0.614201465612 -0.00334251254376 0.0
0.541273070448 -0.000647986201161 0.0
1.14301107246 -0.00302600434979 0.0
1.14522528075 -0.00336695150026 0.0
0.584489257473 -0.00238940792925 0.0
1.15636531717 -0.00485040502984 0.0
1.16281716522 -0.00418096545117 0.0
1.16917140398 -0.00466943576033 0.0
1.22499843432 -0.0204675553619 0.0
1.17614869524 -0.00515834842148 0.0
1.21738322264 -0.016394210205 0.0
1.18072015545 -0.00582771484651 0.0
1.2090803412 -0.0135019439615 0.0
1.19800965229 -0.011391339478 0.0
1.22193532201 -0.0374813367674 0.0
1.19977507222 -0.0491830168853 0.0
1.18395967554 -0.0544665719549 0.0
1.19588962513 -0.00993791588529 0.0
1.22545046126 -0.0344664992407 0.0
1.22748108545 -0.0268037745559 0.0
1.20479390859 -0.0121473345235 0.0
1.17248053209 -0.00711098175107 0.0
1.21436107145 -0.0152553823438 0.0
1.16436593106 -0.00649908738357 0.0
1.22300296088 -0.0197534936493 0.0
1.15775831192 -0.00593161851808 0.0
0.60939572206 -0.0021473566074 0.0
1.15785219942 -0.00503343555228 0.0
0.629205833676 -0.00301970266833 0.0
0.567406063028 -0.00144568026434 0.0
0.700094316443 -0.00726964732978 0.0
1.1389893005 -0.00458127300979 0.0
0.651435750436 -0.00387749058772 0.0
0.564234066556 -0.00172328531687 0.0
1.1350098058 -0.00428129880569 0.0
1.13099580118 -0.00387890148781 0.0
0.681007044895 -0.00520317488637 0.0
0.55695776611 -0.00159355088004 0.0
1.12738288147 -0.00348341691277 0.0
1.43966522512 -0.000239406477471 0.0
1.12411637572 -0.00313263453828 0.0
1.13435323842 -0.00260338714585 0.0
0.527551368618 -0.000215737835671 0.0
1.13257180234 -0.00237404604027 0.0
1.13065386608 -0.00218229579524 0.0
1.1289336589 -0.00204308440269 0.0
1.12735732849 -0.00190052487665 0.0
1.12585036863 -0.00159281632891 0.0
1.12477513436 -0.00104626506584 0.0
1.12402198544 -0.000644464978648 0.0
1.12644959137 -0.000132000050468 0.0
1.1246736635 -9.86297021145e-06 0.0
1.12542707024 -0.000222180277369 0.0
1.12259705521 -0.000468498859647 0.0
1.38270940059 -0.00396950331986 0.0
1.44277824029 -0.000220887616731 0.0
0.536474517161 -0.00137383143078 0.0
0.527038352503 -0.00137068212164 0.0
0.522619541412 -0.00123994099492 0.0
0.518737811445 -0.00114302358376 0.0
0.515360785457 -0.00106814516557 0.0
1.44327827193 -0.000305855084749 0.0
0.512583935402 -0.000671320161557 0.0
0.510053759128 -0.000715629930165 0.0
0.507692366863 -0.000646168448187 0.0
0.505550893118 -0.000614054569049 0.0
0.503616683886 -0.000588153612284 0.0
0.502051238697 -0.000527164088366 0.0
1.44400806696 -0.000987912492793 0.0
0.501130248437 -0.000417607807348 0.0
0.500854422041 -0.000301040555824 0.0
0.500984124706 -0.000261276393013 0.0
0.504510197371 9.57287990808e-05 0.0
1.44229773213 -0.00148589429554 0.0
1.43963608711 -0.00158824814861 0.0
1.31130644201 -0.00705940730428 0.0
1.43660848684 -0.00166479508164 0.0
1.33265915312 -0.00504176191313 0.0
0.900475475631 -0.000115447510435 0.0
1.43339102749 -0.00182173970348 0.0
1.00669105357 -0.0136980149273 0.0
1.08444285182 -0.0177533695102 0.0
1.43961513474 -0.00027457194303 0.0
1.42988295228 -0.00202749447623 0.0
1.21567753135 -0.0953303494974 0.0
1.42618380925 -0.00223569088999 0.0
1.4365318533 -0.0018767195368 0.0
1.38928393675 -0.00343587050196 0.0
1.43028649472 -0.00210747774211 0.0
1.42316229019 -0.00233958342758 0.0
1.43795516896 -1.64819558924e-05 0.0
1.41479524702 -0.00256096098319 0.0
1.40633811745 -0.0027133890469 0.0
1.13479690816 -0.0105694012355 0.0
1.17663006069 -0.00883758685314 0.0
1.38035286582 -0.00311491206097 0.0
1.34437690121 -0.00382369118134 0.0
1.29199132781 -0.0056345155374 0.0
1.36958390674 -0.00338485203089 0.0
1.21213393575 -0.00779793357727 0.0