# vtk DataFile Version 2.0
2D Simulation Python
ASCII
DATASET UNSTRUCTURED_GRID
FIELD FieldData 1
NODES 1 2 int
2790 1289

POINTS 2790 double
0.0 1.0 0.0
1.725 1.0 0.0
8.275 1.0 0.0
20.0 1.0 0.0
20.0 0.0 0.0
0.0 0.0 0.0
0.1916666666663293 1.0 0.0
0.3833333333324708 1.0 0.0
0.574999999998553 1.0 0.0
0.7666666666645966 1.0 0.0
0.9583333333312576 1.0 0.0
1.149999999998384 1.0 0.0
1.341666666665662 1.0 0.0
1.533333333332819 1.0 0.0
0.0958333333331406 1.0 0.0
0.2874999999994247 1.0 0.0
0.4791666666655395 1.0 0.0
0.6708333333315728 1.0 0.0
0.8624999999976626 1.0 0.0
1.054166666664886 1.0 0.0
1.245833333332057 1.0 0.0
1.437499999999343 1.0 0.0
1.629166666666455 1.0 0.0
1.92348484848444 1.0 0.0
2.121969696968978 1.0 0.0
2.320454545453434 1.0 0.0
2.518939393937826 1.0 0.0
2.717424242422235 1.0 0.0
2.915909090906411 1.0 0.0
3.1143939393908 1.0 0.0
3.312878787875129 1.0 0.0
3.511363636359531 1.0 0.0
3.709848484843827 1.0 0.0
3.90833333332816 1.0 0.0
4.106818181812215 1.0 0.0
4.305303030296804 1.0 0.0
4.503787878781365 1.0 0.0
4.702272727265711 1.0 0.0
4.900757575750005 1.0 0.0
5.099242424235156 1.0 0.0
5.297727272720327 1.0 0.0
5.496212121205663 1.0 0.0
5.694696969690998 1.0 0.0
5.89318181817668 1.0 0.0
6.09166666666213 1.0 0.0
6.290151515147423 1.0 0.0
6.488636363633031 1.0 0.0
6.687121212118713 1.0 0.0
6.885606060604342 1.0 0.0
7.084090909089381 1.0 0.0
7.282575757574369 1.0 0.0
7.481060606059355 1.0 0.0
7.679545454544343 1.0 0.0
7.878030303029329 1.0 0.0
8.076515151514705 1.0 0.0
1.824242424242199 1.0 0.0
2.022727272726695 1.0 0.0
2.221212121211181 1.0 0.0
2.41969696969563 1.0 0.0
2.618181818180092 1.0 0.0
2.816666666664316 1.0 0.0
3.015151515148624 1.0 0.0
3.213636363633039 1.0 0.0
3.412121212117267 1.0 0.0
3.610606060601583 1.0 0.0
3.809090909085975 1.0 0.0
4.007575757570153 1.0 0.0
4.206060606054539 1.0 0.0
4.404545454539001 1.0 0.0
4.603030303023853 1.0 0.0
4.801515151507715 1.0 0.0
4.999999999992074 1.0 0.0
5.198484848477777 1.0 0.0
5.396969696963081 1.0 0.0
5.595454545448261 1.0 0.0
5.793939393933949 1.0 0.0
5.992424242419331 1.0 0.0
6.190909090904785 1.0 0.0
6.389393939390224 1.0 0.0
6.587878787875795 1.0 0.0
6.786363636361617 1.0 0.0
6.984848484846598 1.0 0.0
7.183333333331875 1.0 0.0
7.381818181816625 1.0 0.0
7.580303030301849 1.0 0.0
7.778787878786936 1.0 0.0
7.977272727272114 1.0 0.0
8.175757575757618 1.0 0.0
8.473728813558951 1.0 0.0
8.672457627118133 1.0 0.0
8.871186440676855 1.0 0.0
9.069915254236154 1.0 0.0
9.268644067794812 1.0 0.0
9.467372881354057 1.0 0.0
9.666101694912944 1.0 0.0
9.864830508471961 1.0 0.0
10.06355932203108 1.0 0.0
10.26228813558986 1.0 0.0
10.46101694914916 1.0 0.0
10.65974576270777 1.0 0.0
10.85847457626706 1.0 0.0
11.05720338982589 1.0 0.0
11.25593220338497 1.0 0.0
11.45466101694402 1.0 0.0
11.65338983050287 1.0 0.0
11.85211864406215 1.0 0.0
12.05084745762035 1.0 0.0
12.24957627117938 1.0 0.0
12.44830508473794 1.0 0.0
12.64703389829659 1.0 0.0
12.84576271185557 1.0 0.0
13.04449152541379 1.0 0.0
13.24322033897301 1.0 0.0
13.44194915253121 1.0 0.0
13.6406779660903 1.0 0.0
13.83940677964874 1.0 0.0
14.03813559320751 1.0 0.0
14.23686440676681 1.0 0.0
14.43559322032663 1.0 0.0
14.63432203388679 1.0 0.0
14.8330508474463 1.0 0.0
15.0317796610067 1.0 0.0
15.23050847456608 1.0 0.0
15.42923728812645 1.0 0.0
15.62796610168606 1.0 0.0
15.82669491524602 1.0 0.0
16.02542372880584 1.0 0.0
16.22415254236431 1.0 0.0
16.42288135592496 1.0 0.0
16.62161016948498 1.0 0.0
16.82033898304518 1.0 0.0
17.01906779660567 1.0 0.0
17.2177966101654 1.0 0.0
17.41652542372565 1.0 0.0
17.61525423728425 1.0 0.0
17.81398305084494 1.0 0.0
18.01271186440355 1.0 0.0
18.21144067796387 1.0 0.0
18.41016949152309 1.0 0.0
18.6088983050827 1.0 0.0
18.80762711864282 1.0 0.0
19.00635593220153 1.0 0.0
19.20508474576211 1.0 0.0
19.40381355932072 1.0 0.0
19.60254237288117 1.0 0.0
19.80127118644013 1.0 0.0
8.374364406779554 1.0 0.0
8.573093220338519 1.0 0.0
8.771822033897509 1.0 0.0
8.970550847456504 1.0 0.0
9.169279661015429 1.0 0.0
9.368008474574502 1.0 0.0
9.566737288133496 1.0 0.0
9.765466101692677 1.0 0.0
9.964194915251602 1.0 0.0
10.16292372881015 1.0 0.0
10.36165254236967 1.0 0.0
10.56038135592849 1.0 0.0
10.75911016948728 1.0 0.0
10.95783898304648 1.0 0.0
11.15656779660554 1.0 0.0
11.35529661016447 1.0 0.0
11.55402542372345 1.0 0.0
11.75275423728253 1.0 0.0
11.95148305084111 1.0 0.0
12.15021186439983 1.0 0.0
12.34894067795883 1.0 0.0
12.54766949151722 1.0 0.0
12.74639830507616 1.0 0.0
12.94512711863486 1.0 0.0
13.14385593219357 1.0 0.0
13.34258474575207 1.0 0.0
13.54131355931069 1.0 0.0
13.7400423728695 1.0 0.0
13.93877118642822 1.0 0.0
14.13749999998697 1.0 0.0
14.33622881354686 1.0 0.0
14.53495762710678 1.0 0.0
14.73368644066656 1.0 0.0
14.93241525422655 1.0 0.0
15.13114406778625 1.0 0.0
15.32987288134641 1.0 0.0
15.52860169490635 1.0 0.0
15.7273305084661 1.0 0.0
15.9260593220261 1.0 0.0
16.12478813558534 1.0 0.0
16.32351694914468 1.0 0.0
16.52224576270527 1.0 0.0
16.72097457626511 1.0 0.0
16.91970338982543 1.0 0.0
17.11843220338561 1.0 0.0
17.31716101694539 1.0 0.0
17.51588983050497 1.0 0.0
17.71461864406449 1.0 0.0
17.91334745762401 1.0 0.0
18.11207627118383 1.0 0.0
18.31080508474307 1.0 0.0
18.50953389830311 1.0 0.0
18.70826271186271 1.0 0.0
18.90699152542239 1.0 0.0
19.10572033898203 1.0 0.0
19.30444915254171 1.0 0.0
19.50317796610107 1.0 0.0
19.70190677966065 1.0 0.0
19.90063559322003 1.0 0.0
20.0 0.7999999999999998 0.0
20.0 0.6000000000013869 0.0
20.0 0.4000000000016644 0.0
20.0 0.2000000000008322 0.0
20.0 0.9000000000000369 0.0
20.0 0.7000000000005904 0.0
20.0 0.5000000000017577 0.0
20.0 0.3000000000012483 0.0
20.0 0.1000000000004161 0.0
19.8 0.0 0.0
19.6 0.0 0.0
19.4 0.0 0.0
19.2 0.0 0.0
19.0 0.0 0.0
18.8 0.0 0.0
18.6 0.0 0.0
18.4 0.0 0.0
18.2 0.0 0.0
18.0 0.0 0.0
17.8 0.0 0.0
17.59999999999999 0.0 0.0
17.4 0.0 0.0
17.2 0.0 0.0
16.99999999999999 0.0 0.0
16.79999999999999 0.0 0.0
16.59999999999999 0.0 0.0
16.4 0.0 0.0
16.2 0.0 0.0
15.99999999999999 0.0 0.0
15.79999999999999 0.0 0.0
15.59999999999999 0.0 0.0
15.4 0.0 0.0
15.2 0.0 0.0
15.0 0.0 0.0
14.79999999999999 0.0 0.0
14.59999999999999 0.0 0.0
14.4 0.0 0.0
14.2 0.0 0.0
13.99999999999999 0.0 0.0
13.8 0.0 0.0
13.59999999999999 0.0 0.0
13.4 0.0 0.0
13.2 0.0 0.0
13.0 0.0 0.0
12.79999999999999 0.0 0.0
12.6 0.0 0.0
12.4 0.0 0.0
12.2 0.0 0.0
11.99999999999999 0.0 0.0
11.8 0.0 0.0
11.6 0.0 0.0
11.4 0.0 0.0
11.2 0.0 0.0
11.0 0.0 0.0
10.8 0.0 0.0
10.6 0.0 0.0
10.4 0.0 0.0
10.2 0.0 0.0
9.999999999999998 0.0 0.0
9.799999999999995 0.0 0.0
9.599999999999998 0.0 0.0
9.399999999999997 0.0 0.0
9.199999999999998 0.0 0.0
8.999999999999996 0.0 0.0
8.799999999999997 0.0 0.0
8.599999999999996 0.0 0.0
8.399999999999999 0.0 0.0
8.199999999999996 0.0 0.0
7.999999999999998 0.0 0.0
7.799999999999997 0.0 0.0
7.599999999999998 0.0 0.0
7.399999999999999 0.0 0.0
7.199999999999998 0.0 0.0
6.999999999999995 0.0 0.0
6.799999999999995 0.0 0.0
6.599999999999998 0.0 0.0
6.399999999999997 0.0 0.0
6.199999999999996 0.0 0.0
5.999999999999998 0.0 0.0
5.799999999999999 0.0 0.0
5.599999999999996 0.0 0.0
5.399999999999995 0.0 0.0
5.199999999999996 0.0 0.0
4.999999999999998 0.0 0.0
4.799999999999997 0.0 0.0
4.599999999999998 0.0 0.0
4.399999999999999 0.0 0.0
4.199999999999999 0.0 0.0
3.999999999999996 0.0 0.0
3.799999999999997 0.0 0.0
3.599999999999998 0.0 0.0
3.399999999999999 0.0 0.0
3.199999999999999 0.0 0.0
3.0 0.0 0.0
2.800000000000001 0.0 0.0
2.599999999999998 0.0 0.0
2.399999999999999 0.0 0.0
2.199999999999996 0.0 0.0
1.999999999999996 0.0 0.0
1.800000000000001 0.0 0.0
1.599999999999998 0.0 0.0
1.399999999999999 0.0 0.0
1.200000000000003 0.0 0.0
1.0 0.0 0.0
0.7999999999999972 0.0 0.0
0.5999999999999979 0.0 0.0
0.3999999999999986 0.0 0.0
0.1999999999999993 0.0 0.0
19.90000000000022 0.0 0.0
19.69999999999997 0.0 0.0
19.49999999999987 0.0 0.0
19.30000000000005 0.0 0.0
19.09999999999999 0.0 0.0
18.89999999999987 0.0 0.0
18.7 0.0 0.0
18.49999999999999 0.0 0.0
18.30000000000001 0.0 0.0
18.09999999999987 0.0 0.0
17.90000000000013 0.0 0.0
17.7 0.0 0.0
17.49999999999987 0.0 0.0
17.30000000000025 0.0 0.0
17.10000000000001 0.0 0.0
16.90000000000005 0.0 0.0
16.70000000000003 0.0 0.0
16.50000000000006 0.0 0.0
16.29999999999997 0.0 0.0
16.09999999999999 0.0 0.0
15.89999999999987 0.0 0.0
15.69999999999999 0.0 0.0
15.49999999999999 0.0 0.0
15.3 0.0 0.0
15.10000000000003 0.0 0.0
14.90000000000005 0.0 0.0
14.69999999999992 0.0 0.0
14.49999999999996 0.0 0.0
14.29999999999999 0.0 0.0
14.10000000000008 0.0 0.0
13.89999999999988 0.0 0.0
13.70000000000003 0.0 0.0
13.50000000000004 0.0 0.0
13.29999999999992 0.0 0.0
13.09999999999995 0.0 0.0
12.90000000000016 0.0 0.0
12.7 0.0 0.0
12.49999999999986 0.0 0.0
12.30000000000003 0.0 0.0
12.10000000000016 0.0 0.0
11.90000000000005 0.0 0.0
11.69999999999994 0.0 0.0
11.49999999999993 0.0 0.0
11.30000000000005 0.0 0.0
11.0999999999999 0.0 0.0
10.90000000000004 0.0 0.0
10.69999999999995 0.0 0.0
10.50000000000012 0.0 0.0
10.29999999999999 0.0 0.0
10.09999999999993 0.0 0.0
9.900000000000077 0.0 0.0
9.699999999999969 0.0 0.0
9.499999999999982 0.0 0.0
9.299999999999969 0.0 0.0
9.100000000000108 0.0 0.0
8.899999999999972 0.0 0.0
8.699999999999958 0.0 0.0
8.499999999999998 0.0 0.0
8.30000000000003 0.0 0.0
8.099999999999977 0.0 0.0
7.899999999999974 0.0 0.0
7.700000000000166 0.0 0.0
7.499999999999854 0.0 0.0
7.299999999999997 0.0 0.0
7.100000000000019 0.0 0.0
6.900000000000002 0.0 0.0
6.699999999999974 0.0 0.0
6.500000000000037 0.0 0.0
6.299999999999981 0.0 0.0
6.100000000000014 0.0 0.0
5.899999999999949 0.0 0.0
5.700000000000049 0.0 0.0
5.499999999999956 0.0 0.0
5.300000000000118 0.0 0.0
5.100000000000005 0.0 0.0
4.900000000000109 0.0 0.0
4.699999999999982 0.0 0.0
4.499999999999936 0.0 0.0
4.300000000000137 0.0 0.0
4.100000000000012 0.0 0.0
3.899999999999888 0.0 0.0
3.69999999999974 0.0 0.0
3.500000000000046 0.0 0.0
3.299999999999965 0.0 0.0
3.099999999999817 0.0 0.0
2.900000000000066 0.0 0.0
2.699999999999793 0.0 0.0
2.500000000000064 0.0 0.0
2.299999999999823 0.0 0.0
[...]
POINT_DATA 2790
VECTORS vector double
1.0 0.0 0.0
0.0 0.0 0.0
0.0 0.0 0.0
0.0 0.0 0.0
1.56600672539 0.0 0.0
1.0 0.0 0.0
0.0 0.0 0.0
0.0 0.0 0.0
0.0 0.0 0.0
0.0 0.0 0.0
0.0 0.0 0.0
0.0 0.0 0.0
0.0 0.0 0.0
0.0 0.0 0.0
0.0 0.0 0.0
0.0 0.0 0.0
0.0 0.0 0.0
0.0 0.0 0.0
0.0 0.0 0.0
0.0 0.0 0.0
0.0 0.0 0.0
0.0 0.0 0.0
0.0 0.0 0.0
0.0 0.0 0.0
0.0 0.0 0.0
0.0 0.0 0.0
0.0 0.0 0.0
0.0 0.0 0.0
0.0 0.0 0.0
0.0 0.0 0.0
0.0 0.0 0.0
0.0 0.0 0.0
0.0 0.0 0.0
0.0 0.0 0.0
0.0 0.0 0.0
0.0 0.0 0.0
0.0 0.0 0.0
0.0 0.0 0.0
0.0 0.0 0.0
0.0 0.0 0.0
0.0 0.0 0.0
0.0 0.0 0.0
0.0 0.0 0.0
0.0 0.0 0.0
0.0 0.0 0.0
0.0 0.0 0.0
0.0 0.0 0.0
0.0 0.0 0.0
0.0 0.0 0.0
0.0 0.0 0.0
0.0 0.0 0.0
0.0 0.0 0.0
0.0 0.0 0.0
0.0 0.0 0.0
0.0 0.0 0.0
0.0 0.0 0.0
0.0 0.0 0.0
0.0 0.0 0.0
0.0 0.0 0.0
0.0 0.0 0.0
0.0 0.0 0.0
0.0 0.0 0.0
0.0 0.0 0.0
0.0 0.0 0.0
0.0 0.0 0.0
0.0 0.0 0.0
0.0 0.0 0.0
0.0 0.0 0.0
0.0 0.0 0.0
0.0 0.0 0.0
0.0 0.0 0.0
0.0 0.0 0.0
0.0 0.0 0.0
0.0 0.0 0.0
0.0 0.0 0.0
0.0 0.0 0.0
0.0 0.0 0.0
0.0 0.0 0.0
0.0 0.0 0.0
0.0 0.0 0.0
0.0 0.0 0.0
0.0 0.0 0.0
0.0 0.0 0.0
0.0 0.0 0.0
0.0 0.0 0.0
0.0 0.0 0.0
0.0 0.0 0.0
0.0 0.0 0.0
0.0 0.0 0.0
0.0 0.0 0.0
0.0 0.0 0.0
0.0 0.0 0.0
0.0 0.0 0.0
0.0 0.0 0.0
0.0 0.0 0.0
0.0 0.0 0.0
0.0 0.0 0.0
0.0 0.0 0.0
0.0 0.0 0.0
0.0 0.0 0.0
0.0 0.0 0.0
0.0 0.0 0.0
0.0 0.0 0.0
0.0 0.0 0.0
0.0 0.0 0.0
0.0 0.0 0.0
0.0 0.0 0.0
0.0 0.0 0.0
0.0 0.0 0.0
0.0 0.0 0.0
0.0 0.0 0.0
0.0 0.0 0.0
0.0 0.0 0.0
0.0 0.0 0.0
0.0 0.0 0.0
0.0 0.0 0.0
0.0 0.0 0.0
0.0 0.0 0.0
0.0 0.0 0.0
0.0 0.0 0.0
0.0 0.0 0.0
0.0 0.0 0.0
0.0 0.0 0.0
0.0 0.0 0.0
0.0 0.0 0.0
0.0 0.0 0.0
0.0 0.0 0.0
0.0 0.0 0.0
0.0 0.0 0.0
0.0 0.0 0.0
0.0 0.0 0.0
0.0 0.0 0.0
0.0 0.0 0.0
0.0 0.0 0.0
0.0 0.0 0.0
0.0 0.0 0.0
0.0 0.0 0.0
0.0 0.0 0.0
0.0 0.0 0.0
0.0 0.0 0.0
0.0 0.0 0.0
0.0 0.0 0.0
0.0 0.0 0.0
0.0 0.0 0.0
0.0 0.0 0.0
0.0 0.0 0.0
0.0 0.0 0.0
0.0 0.0 0.0
0.0 0.0 0.0
0.0 0.0 0.0
0.0 0.0 0.0
0.0 0.0 0.0
0.0 0.0 0.0
0.0 0.0 0.0
0.0 0.0 0.0
0.0 0.0 0.0
0.0 0.0 0.0
0.0 0.0 0.0
0.0 0.0 0.0
0.0 0.0 0.0
0.0 0.0 0.0
0.0 0.0 0.0
0.0 0.0 0.0
0.0 0.0 0.0
0.0 0.0 0.0
0.0 0.0 0.0
0.0 0.0 0.0
0.0 0.0 0.0
0.0 0.0 0.0
0.0 0.0 0.0
0.0 0.0 0.0
0.0 0.0 0.0
0.0 0.0 0.0
0.0 0.0 0.0
0.0 0.0 0.0
0.0 0.0 0.0
0.0 0.0 0.0
0.0 0.0 0.0
0.0 0.0 0.0
0.0 0.0 0.0
0.0 0.0 0.0
0.0 0.0 0.0
0.0 0.0 0.0
0.0 0.0 0.0
0.0 0.0 0.0
0.0 0.0 0.0
0.0 0.0 0.0
0.0 0.0 0.0
0.0 0.0 0.0
0.0 0.0 0.0
0.0 0.0 0.0
0.0 0.0 0.0
0.0 0.0 0.0
0.0 0.0 0.0
0.0 0.0 0.0
0.0 0.0 0.0
0.0 0.0 0.0
0.0 0.0 0.0
0.0 0.0 0.0
0.0 0.0 0.0
0.0 0.0 0.0
0.0 0.0 0.0
0.0 0.0 0.0
0.0 0.0 0.0
0.0 0.0 0.0
0.548221461445 5.52287218137e-06 0.0
0.964556518717 -4.45831834834e-05 0.0
1.25234555335 -0.000436930548671 0.0
1.43715786348 -0.000350506261927 0.0
0.280861206528 -0.000129921986079 0.0
0.762463780371 0.00112385024833 0.0
1.11359602889 -0.000229723571574 0.0
1.34732885694 -0.000800726006839 0.0
1.50054925564 -0.000231892390692 0.0
1.5649564601 0.0 0.0
1.56507062803 0.0 0.0
1.56532204807 0.0 0.0
1.56571684164 0.0 0.0
1.56499977378 0.0 0.0
1.56588499525 0.0 0.0
1.56608553937 0.0 0.0
1.56553586631 0.0 0.0
1.56596660646 0.0 0.0
1.56585674739 0.0 0.0
1.5649576618 0.0 0.0
1.56480147468 0.0 0.0
1.56391645061 0.0 0.0
1.5620810547 0.0 0.0
1.55959587987 0.0 0.0
1.55764382299 0.0 0.0
1.55669057851 0.0 0.0
1.55374805041 0.0 0.0
1.55148057823 0.0 0.0
1.55040436581 0.0 0.0
1.54736537768 0.0 0.0
1.54506718457 0.0 0.0
1.54390759045 0.0 0.0
1.54071366544 0.0 0.0
1.5382191704 0.0 0.0
1.53685610407 0.0 0.0
1.53341445948 0.0 0.0
1.53064585291 0.0 0.0
1.52902699027 0.0 0.0
1.52529032566 0.0 0.0
1.52220118948 0.0 0.0
1.5202876869 0.0 0.0
1.51622527777 0.0 0.0
1.51278781071 0.0 0.0
1.51056487777 0.0 0.0
1.50614599847 0.0 0.0
1.50236446648 0.0 0.0
1.49985497132 0.0 0.0
1.49474571767 0.0 0.0
1.49038812708 0.0 0.0
1.48756675615 0.0 0.0
1.4825663797 0.0 0.0
1.47796400865 0.0 0.0
1.47485795825 0.0 0.0
1.46957105348 0.0 0.0
1.46466631559 0.0 0.0
1.46128431994 0.0 0.0
1.45577934004 0.0 0.0
1.45067496619 0.0 0.0
1.44696455941 0.0 0.0
1.44118668993 0.0 0.0
1.43590668314 0.0 0.0
1.43195684613 0.0 0.0
1.42884516855 0.0 0.0
1.42230284354 0.0 0.0
1.4156813099 0.0 0.0
1.40998205465 0.0 0.0
1.40525566804 0.0 0.0
1.39903213367 0.0 0.0
1.39318534193 0.0 0.0
1.38874160845 0.0 0.0
1.38220725052 0.0 0.0
1.37600579519 0.0 0.0
1.37134181286 0.0 0.0
1.36450075171 0.0 0.0
1.35807653603 0.0 0.0
1.3530848408 0.0 0.0
1.34598166886 0.0 0.0
1.33929954708 0.0 0.0
1.33377448473 0.0 0.0
1.32858557297 0.0 0.0
1.32030819251 0.0 0.0
1.31331193658 0.0 0.0
1.30565205124 0.0 0.0
1.2972176989 0.0 0.0
1.2900456036 0.0 0.0
1.28102883049 0.0 0.0
1.27215456755 0.0 0.0
1.26407411175 0.0 0.0
1.25613907265 0.0 0.0
1.24699999003 0.0 0.0
1.23823113934 0.0 0.0
1.22942422127 0.0 0.0
1.21972459894 0.0 0.0
1.21012278315 0.0 0.0
1.20027091056 0.0 0.0
1.189865879 0.0 0.0
1.17919841463 0.0 0.0
1.16792376938 0.0 0.0
1.15638947102 0.0 0.0
1.14408872875 0.0 0.0
1.13049178121 0.0 0.0
1.11629420455 0.0 0.0
1.10057742264 0.0 0.0
1.08227578444 0.0 0.0
1.06272225435 0.0 0.0
1.04141158123 0.0 0.0
1.01888049411 0.0 0.0
1.00359836258 0.0 0.0
1.56541362351 0.0 0.0
1.56446191684 0.0 0.0
1.56589183771 0.0 0.0
1.56466960628 0.0 0.0
1.56470977798 0.0 0.0
1.56506820101 0.0 0.0
1.56664112936 0.0 0.0
1.56521863971 0.0 0.0
1.5651465108 0.0 0.0
1.56653569624 0.0 0.0
1.5648213104 0.0 0.0
1.56426968069 0.0 0.0
1.56495749215 0.0 0.0
1.56235825278 0.0 0.0
1.56088285994 0.0 0.0
1.55799253801 0.0 0.0
1.55733230204 0.0 0.0
1.55526850444 0.0 0.0
1.55187502488 0.0 0.0
1.55107162564 0.0 0.0
1.54892497401 0.0 0.0
1.54546911893 0.0 0.0
1.54461673501 0.0 0.0
1.54234208652 0.0 0.0
1.53869428279 0.0 0.0
1.53766016329 0.0 0.0
1.53514504229 0.0 0.0
1.53122231739 0.0 0.0
1.52994816973 0.0 0.0
1.52714263027 0.0 0.0
1.52289641012 0.0 0.0
1.5213413757 0.0 0.0
1.51821236428 0.0 0.0
1.51361176494 0.0 0.0
1.51175113136 0.0 0.0
1.50830075129 0.0 0.0
1.50338523802 0.0 0.0
1.50114391666 0.0 0.0
1.49723788011 0.0 0.0
1.4916989667 0.0 0.0
1.48864870771 0.0 0.0
1.48519238132 0.0 0.0
1.47939845472 0.0 0.0
1.4760515972 0.0 0.0
1.4723172271 0.0 0.0
1.46621627192 0.0 0.0
1.46259837062 0.0 0.0
1.45860925755 0.0 0.0
1.45231188219 0.0 0.0
1.44842428679 0.0 0.0
1.44414662123 0.0 0.0
1.43763512903 0.0 0.0
1.43357773414 0.0 0.0
1.42917324642 0.0 0.0
1.42469406431 0.0 0.0
1.4186824381 0.0 0.0
1.41188834308 0.0 0.0
1.40725646366 0.0 0.0
1.40214196945 0.0 0.0
1.39530333369 0.0 0.0
1.39052710281 0.0 0.0
1.38550302578 0.0 0.0
1.37814403705 0.0 0.0
1.37320105662 0.0 0.0
1.3679097302 0.0 0.0
1.36033943334 0.0 0.0
1.35510452187 0.0 0.0
1.34950467851 0.0 0.0
1.34175306399 0.0 0.0
1.33613094078 0.0 0.0
1.32997421606 0.0 0.0
1.32351514615 0.0 0.0
1.3161746478 0.0 0.0
1.30882297537 0.0 0.0
1.30087826482 0.0 0.0
1.29307290081 0.0 0.0
1.2842402942 0.0 0.0
1.276094994 0.0 0.0
1.26756978599 0.0 0.0
1.25994634533 0.0 0.0
1.25101406458 0.0 0.0
1.24217392393 0.0 0.0
1.23361259987 0.0 0.0
1.22412544216 0.0 0.0
1.21462745875 0.0 0.0
1.20497171855 0.0 0.0
1.1947525934 0.0 0.0
1.18442083217 0.0 0.0
1.17336120072 0.0 0.0
1.16199606146 0.0 0.0
1.15030815844 0.0 0.0
1.13713111398 0.0 0.0
1.12335891894 0.0 0.0
1.10864084034 0.0 0.0
1.09126858123 0.0 0.0
1.07248164859 0.0 0.0
1.05237747517 0.0 0.0
1.02984890547 0.0 0.0
1.01055412259 0.0 0.0
0.999743876158 0.0 0.0
1.0 0.0 0.0
1.0 0.0 0.0
1.0 0.0 0.0
1.0 0.0 0.0
1.0 0.0 0.0
1.0 0.0 0.0
1.0 0.0 0.0
1.0 0.0 0.0
1.0 0.0 0.0
1.1719992912 -0.0687613580362 0.0
1.22426177495 -0.0450379988534 0.0
1.22498927583 -0.0309675269047 0.0
1.07696241672 7.01626619271e-06 0.0
1.1138025008 -6.47524073375e-05 0.0
1.11277889275 -3.45797684126e-05 0.0
1.11001146099 -0.000236862743224 0.0
1.10880944474 -0.000700433957092 0.0
1.1102752742 -0.00113046629195 0.0
1.11177089079 -0.0013790388273 0.0
1.11340129276 -0.0015249007578 0.0
1.11523905376 -0.00167038892052 0.0
1.11734724383 -0.00184818447873 0.0
1.11976148811 -0.00206946222054 0.0
1.12250975746 -0.00233203491516 0.0
1.07660408645 -0.00237178695272 0.0
1.08055952752 -0.00256462089171 0.0
1.08487783703 -0.00285426955149 0.0
1.08953467024 -0.003126096486 0.0
1.14724278046 -0.00443370313034 0.0
1.21535316491 -0.0227945265703 0.0
1.11750600652 -0.00448358122022 0.0
1.09460706569 -0.00327884880189 0.0
1.20016884344 -0.0175105410018 0.0
1.12510364446 -0.00498149902958 0.0
1.13701127067 -0.00395458871129 0.0
1.18542040221 -0.0138114218038 0.0
1.13382347735 -0.00540623010608 0.0
1.17195646931 -0.0112591956736 0.0
1.17289411017 -0.0067739021209 0.0
1.184838535 -0.0105508336245 0.0
1.14347584133 -0.0044176784161 0.0
1.16028756913 -0.00992342671882 0.0
0.870397249834 -0.000570526742625 0.0
1.21052841165 -0.166493912953 0.0
1.29128700052 -0.0109851700482 0.0
1.2800649471 -0.0128323630977 0.0
1.30802844015 -0.00735281909037 0.0
1.26656997848 -0.0151953209779 0.0
1.30819520951 -0.0066048216937 0.0
1.21885432 -0.0216695160304 0.0
1.24709233232 -0.0180883647668 0.0
1.31005095386 -0.00606092917351 0.0
1.31132617763 -0.00557297310315 0.0
1.31345068359 -0.00471571402366 0.0
1.31406932235 -0.00441419095889 0.0
1.31435220522 -0.00413099076309 0.0
1.31453082922 -0.00377650898849 0.0
1.31450628615 -0.00344716346715 0.0
1.30496803748 -0.00313513334966 0.0
1.30456619265 -0.00275237411784 0.0
1.30433249748 -0.00246342819226 0.0
1.20190888198 -0.0561270160185 0.0
1.30404131257 -0.00220528573514 0.0
1.30384717932 -0.0019961181767 0.0
1.30373668856 -0.00182152369094 0.0
1.17796235784 -0.0268992866207 0.0
1.30360003578 -0.00165034225049 0.0
1.12597076414 -0.0289811987944 0.0
1.129709479 -0.0368026643246 0.0
1.30130860038 -0.00132929550102 0.0
1.30063856101 -0.000796310044824 0.0
0.826687695398 -0.000293444093295 0.0
1.29988318166 -0.000205736267882 0.0
0.826347433551 -0.000128856923345 0.0
0.955725908605 -0.00698522265463 0.0
0.975603954087 -0.00830315380575 0.0
0.914414883723 -0.00299976593558 0.0
1.07156553623 -0.0190462790528 0.0
0.999914193408 -0.0105825971942 0.0
0.902041414933 -0.00337222692557 0.0
1.03087805764 -0.0140080010649 0.0
0.891807369027 -0.00315260378491 0.0
0.882734201652 -0.00282519617031 0.0
0.87465890602 -0.00208941689843 0.0
0.868021285012 -0.00228810912901 0.0
0.861911842263 -0.00211352572328 0.0
0.856245915299 -0.00192830538256 0.0
0.851139384566 -0.00175635441127 0.0
0.846652659186 -0.00147605850909 0.0
0.842608295857 -0.0013872634847 0.0
0.839097050805 -0.00123242294708 0.0
0.835920081112 -0.00110935587999 0.0
0.833052479205 -0.00101931273957 0.0
0.830460958457 -0.000937603350684 0.0
1.30414917458 2.01401199807e-05 0.0
0.828183401212 -0.000816986490466 0.0
0.826384197186 -0.000638046247206 0.0
0.825393502396 -0.000289084556501 0.0
0.82511076943 -8.3944472828e-05 0.0
1.32139685712 -5.92308853445e-05 0.0
1.03251805325 -0.0374931903932 0.0
1.32671474981 -8.95241997985e-06 0.0
1.31332802437 -0.00509736953392 0.0
1.31025982573 -0.00864105038792 0.0
1.30207098439 -0.00979214712898 0.0
1.32548433907 -0.00538779551162 0.0
0.817930955761 -0.00319583686796 0.0
0.858877006473 -0.00221622568985 0.0
0.875213195615 -0.00358793641967 0.0
0.884797422744 -0.00740721662476 0.0
1.16222610542 -0.0668815207773 0.0
1.01503632341 -0.0250502733902 0.0
1.3289048286 -0.00018029823063 0.0
1.37967081335 -0.00314429498079 0.0
1.37679942183 -0.00343071111936 0.0
1.13920480217 -0.0215204737249 0.0
1.36869862809 -0.00301965726138 0.0
1.0749106505 -0.0289605970215 0.0
1.37336853121 -0.00372580452334 0.0
1.3702976294 -0.00269149645135 0.0
1.37165394017 -0.00241108842638 0.0
1.36478090304 -0.00404035281978 0.0
0.925601510658 -0.0144890481338 0.0
1.37291729571 -0.00216638960144 0.0
1.36121682267 -0.00422957190581 0.0
1.37413252671 -0.00196360852801 0.0
1.37529099361 -0.00180099518327 0.0
1.18569370728 -0.017549902657 0.0
1.37621127286 -0.00162390161899 0.0
1.36646160097 -0.001189398942 0.0
1.41399682955 -0.000545777992805 0.0
0.600965218674 0.000159897238772 0.0
1.35145793141 -0.0050060597565 0.0
1.41049543825 -0.000115793541978 0.0
0.616511452362 0.000153273642836 0.0
0.574808968083 0.000486016752467 0.0
1.41039524057 -7.01663162722e-06 0.0
0.598625964665 0.000299201789832 0.0
1.34735599184 -0.00530073056933 0.0
1.22171321624 -0.0149312829973 0.0
0.598734569874 0.000161509857813 0.0
0.599714075349 4.77877158013e-05 0.0
0.601249659169 -4.31454656796e-06 0.0
0.603162997634 -2.70072353416e-05 0.0
1.34107174902 -0.00570351832082 0.0
1.25102090348 -0.012915044302 0.0
0.605322277859 -5.3716395039e-05 0.0
0.607721848353 -9.30125096854e-05 0.0
0.610423292732 -0.000157137522987 0.0
0.613403151068 -0.000203954612281 0.0
0.617468999046 -0.000434734236424 0.0
1.33305471873 -0.00618482136884 0.0
1.27401560931 -0.011220326713 0.0
0.621425264703 -0.000514949161767 0.0
0.625884807327 -0.000608925410902 0.0
0.494646647816 -0.000523388049342 0.0
0.630860545452 -0.000692337332707 0.0
0.81397935283 -0.00751674715606 0.0
0.65475180857 -0.000836755181833 0.0
0.775954738107 -0.00532450708731 0.0
0.66276982551 -0.00100731759239 0.0
0.636009387862 -0.000744452319805 0.0
0.747806578577 -0.00396663253698 0.0
0.671091038362 -0.00087142525527 0.0
0.725958155806 -0.00300030684253 0.0
0.516007290592 0.000413531552588 0.0
0.602443267421 -0.00210671575192 0.0
0.537709526846 -0.000189592718935 0.0
1.32384438031 -0.00642206581948 0.0
1.29242761072 -0.00987536979849 0.0
1.30540714321 -0.00910242101451 0.0
1.3285836946 -0.00707115102367 0.0
1.3551242681 -0.0047935865719 0.0
1.36338015356 -0.00441361091408 0.0
0.622505993019 -0.00262739184079 0.0
0.837700818286 -0.00773198405693 0.0
1.41279753456 -0.000104230396701 0.0
1.03240846405 -0.0528522972268 0.0
1.10889335676 -0.000230987886289 0.0
1.1771278929 -0.000178838940071 0.0
1.04120108893 -0.0209608136605 0.0
0.496667389868 4.87897900236e-05 0.0
1.10767638276 -0.0825490762731 0.0
0.984339728763 -0.0592703882909 0.0
0.544624618834 -0.00106452175796 0.0
1.42379145679 -0.00264991787827 0.0
1.41956641645 -0.0029724584914 0.0
1.42666771822 -0.00226390084233 0.0
1.41394925232 -0.00321068474539 0.0
1.28522178742 -0.307620761592 0.0
1.40724957154 -0.00345940140557 0.0
1.43051410569 -0.0020210230498 0.0
1.40062473252 -0.00363085080649 0.0
1.43392560814 -0.00180134461352 0.0
1.43701636985 -0.00161037858402 0.0
1.1968323615 -0.0107273852337 0.0
1.37150272085 -0.00439947781002 0.0
1.10863019652 -0.0166704600921 0.0
1.36173201489 -0.00470774920428 0.0
1.2307961577 -0.00939842395601 0.0
1.43984863799 -0.00145278609384 0.0
1.35084493446 -0.0050211560483 0.0
1.25947080256 -0.00830928013718 0.0
1.15684170225 -0.0127332379641 0.0
1.28368270961 -0.00741324528403 0.0
1.44245665607 -0.00134016857939 0.0
1.44349037732 -0.00122565768833 0.0
1.44384103839 -0.000839477564902 0.0
1.44127380392 -6.80811779382e-05 0.0
1.44291240412 0.000194636274877 0.0
1.44428658677 5.54770335262e-05 0.0
1.14840397365 -0.00431329688113 0.0
0.721220681632 -0.00903370426088 0.0
0.771509480186 -0.0148428978953 0.0
0.833012029536 -0.0212383851683 0.0
0.690373727893 -0.00778831353076 0.0
0.465394196827 -0.000433928646479 0.0
0.465630303081 -0.000485971058969 0.0
0.466497370979 -0.000575618089746 0.0
1.19730841911 -0.00841838124469 0.0
0.467892828428 -0.000615910649645 0.0
0.469631018489 -0.000642954277759 0.0
0.471571952064 -0.000670942950081 0.0
1.11332917421 0.000268644797116 0.0
1.20225682318 -0.0106978343979 0.0
0.473702222091 -0.000707877820152 0.0
1.11356585525 -2.63066870427e-05 0.0
0.476074512139 -0.000763804640696 0.0
0.478751257629 -0.000863875666547 0.0
0.481531562876 -0.000495153822375 0.0
0.484863096149 -0.00057140781702 0.0
1.10045727581 -8.39736134528e-05 0.0
0.488667992704 -0.000638954505785 0.0
1.1008427595 -3.93011913789e-05 0.0
0.473444489194 -0.000326670610876 0.0
0.492905195002 -0.000709299605748 0.0
1.10188632699 -0.000622298672324 0.0
0.475513280309 -0.000418911345317 0.0
1.10381263817 -0.000899318809844 0.0
0.472131269608 -0.000694165728016 0.0
0.497566139901 -0.000797959711282 0.0
1.10539373115 -0.0010600506228 0.0
0.472840626114 -0.000327941765272 0.0
0.487828471586 -0.00028601571033 0.0
1.10714310389 -0.00118972399387 0.0
0.663735322306 -0.00707265421996 0.0
1.1091273158 -0.00134091258491 0.0
1.11142618347 -0.00153785662636 0.0
0.515421642884 -0.000789239671043 0.0
1.11394909306 -0.00175658689004 0.0
1.11416967674 -0.00213086649534 0.0
1.22601281092 -0.026491884613 0.0
0.628465667389 -0.00469637382467 0.0
0.522134369819 -0.00115443203416 0.0
1.11555850702 -0.00224760870731 0.0
1.11943865575 -0.00253384121156 0.0
0.603065795657 -0.00362074233858 0.0
0.529348004401 -0.00120765227217 0.0
1.12367083764 -0.00279601750073 0.0
0.583804500735 -0.00290440742554 0.0
0.511801640898 -0.000480798727501 0.0
1.12819547614 -0.00304271332902 0.0
1.13041824207 -0.00322494898621 0.0
0.55434941745 -0.00210975551018 0.0
1.14241932789 -0.00477766636372 0.0
1.14916619588 -0.00418686451163 0.0
1.15586873149 -0.00456085450949 0.0
1.21879301511 -0.0205143612503 0.0
1.16332918006 -0.00504437194818 0.0
1.20935694247 -0.016383202476 0.0
1.16820201714 -0.00564724971965 0.0
1.19970239975 -0.0134012909901 0.0
1.18726380718 -0.0113468604435 0.0
1.22241233071 -0.0384728886979 0.0
1.20377444833 -0.0527872990707 0.0
1.18676763056 -0.058059275827 0.0
1.18515976916 -0.009775783401 0.0
1.22558687454 -0.0355913706843 0.0
1.22417340095 -0.0268330610978 0.0
1.19516639965 -0.0119558113532 0.0
1.1594615073 -0.00691435711233 0.0
1.20626344792 -0.0151206182699 0.0
1.15080899516 -0.0064260105393 0.0
1.21693170053 -0.0196078199168 0.0
1.14381403916 -0.00590641596046 0.0
0.579504097399 -0.00216932991353 0.0
1.14386800442 -0.00514776963449 0.0
0.598705826969 -0.00300436457207 0.0
0.538688787659 -0.00117148518469 0.0
0.666279142934 -0.00653918117874 0.0
1.12388950321 -0.00446392198128 0.0
0.620193223271 -0.00382688868133 0.0
0.535984467144 -0.00147219559426 0.0
1.11964089079 -0.00437359259787 0.0
1.11532308294 -0.00406566321794 0.0
0.648867868827 -0.00503167455725 0.0
0.528962417454 -0.00138263838801 0.0
1.11128903798 -0.00375178224226 0.0
1.44016037968 -0.000396472083916 0.0
1.10753506039 -0.00345781714645 0.0
1.11778099541 -0.00285812293878 0.0
0.499369732589 -0.000450378517861 0.0
1.11553276527 -0.00260128718501 0.0
1.11318542485 -0.00237502469834 0.0
1.1110980825 -0.00218101438104 0.0
1.10929157847 -0.00202821165231 0.0
1.1077063888 -0.00188877320213 0.0
1.10626699616 -0.00169369262522 0.0
1.1044228527 -0.00143563566398 0.0
1.10535130333 4.31739705674e-05 0.0
1.10408958208 -0.000471010465633 0.0
1.10438459127 -0.000360115652869 0.0
1.10132718318 -0.000644072373232 0.0
1.38059425352 -0.00411009058583 0.0
1.44330927431 -0.000875950525188 0.0
0.509234788122 -0.00116063248359 0.0
0.499756058993 -0.00118891543186 0.0
0.49519673959 -0.00108722829616 0.0
0.49107967151 -0.00103134957079 0.0
0.487393342194 -0.000991343276054 0.0
1.44294617008 -0.00124680428968 0.0
0.484358088534 -0.000592791503636 0.0
0.48154176831 -0.00065383742713 0.0
0.478959257403 -0.000592347301168 0.0
0.476674224851 -0.000549838344433 0.0
0.474610353926 -0.000520288532537 0.0
0.472735163064 -0.000496110836502 0.0
1.44233785614 -0.00147353906088 0.0
0.471100319685 -0.000451097149626 0.0
0.469855236585 -0.000389275799287 0.0
0.469240049128 -0.000283426061408 0.0
0.472425286656 0.000101511872733 0.0
1.43978186487 -0.00157772419401 0.0
1.43699183195 -0.00172401345132 0.0
1.31143784839 -0.00741155111788 0.0
1.43398013174 -0.00190634903639 0.0
1.33224658148 -0.00533710466454 0.0
0.872503075523 -7.03814391627e-05 0.0
1.43068718466 -0.00212289727823 0.0
1.00564488413 -0.0107294162013 0.0
1.08375418311 -0.0192291141238 0.0
1.44010743127 -0.00017292052261 0.0
1.42701393139 -0.0023627823584 0.0
1.22423629789 -0.101053046487 0.0
1.42309900156 -0.00260008362019 0.0
1.43379480782 -0.00223755721004 0.0
1.38631940381 -0.00356404700999 0.0
1.42728768873 -0.00244221939686 0.0
1.42002198507 -0.00265696729759 0.0
1.43860267583 -0.00029828973673 0.0
1.41173605032 -0.00285581811679 0.0
1.40355825342 -0.00287580115699 0.0
1.13506555567 -0.0115938160673 0.0
1.17747868274 -0.0095194749924 0.0
1.37876102717 -0.00340121957972 0.0
1.34409760692 -0.00404831689027 0.0
1.29271703364 -0.00607516250297 0.0
1.36831166582 -0.003630128373 0.0
1.21315323851 -0.00843073041039 0.0