# vtk DataFile Version 2.0
2D Simulation Python
ASCII
DATASET UNSTRUCTURED_GRID
FIELD FieldData 1
NODES 1 2 int
2790 1289

POINTS 2790 double
0.0 1.0 0.0
1.725 1.0 0.0
8.275 1.0 0.0
20.0 1.0 0.0
20.0 0.0 0.0
0.0 0.0 0.0
0.1916666666663293 1.0 0.0
0.3833333333324708 1.0 0.0
0.574999999998553 1.0 0.0
0.7666666666645966 1.0 0.0
0.9583333333312576 1.0 0.0
1.149999999998384 1.0 0.0
1.341666666665662 1.0 0.0
1.533333333332819 1.0 0.0
0.0958333333331406 1.0 0.0
0.2874999999994247 1.0 0.0
0.4791666666655395 1.0 0.0
0.6708333333315728 1.0 0.0
0.8624999999976626 1.0 0.0
1.054166666664886 1.0 0.0
1.245833333332057 1.0 0.0
1.437499999999343 1.0 0.0
1.629166666666455 1.0 0.0
1.92348484848444 1.0 0.0
2.121969696968978 1.0 0.0
2.320454545453434 1.0 0.0
2.518939393937826 1.0 0.0
2.717424242422235 1.0 0.0
2.915909090906411 1.0 0.0
3.1143939393908 1.0 0.0
3.312878787875129 1.0 0.0
3.511363636359531 1.0 0.0
3.709848484843827 1.0 0.0
3.90833333332816 1.0 0.0
4.106818181812215 1.0 0.0
4.305303030296804 1.0 0.0
4.503787878781365 1.0 0.0
4.702272727265711 1.0 0.0
4.900757575750005 1.0 0.0
5.099242424235156 1.0 0.0
5.297727272720327 1.0 0.0
5.496212121205663 1.0 0.0
5.694696969690998 1.0 0.0
5.89318181817668 1.0 0.0
6.09166666666213 1.0 0.0
6.290151515147423 1.0 0.0
6.488636363633031 1.0 0.0
6.687121212118713 1.0 0.0
6.885606060604342 1.0 0.0
7.084090909089381 1.0 0.0
7.282575757574369 1.0 0.0
7.481060606059355 1.0 0.0
7.679545454544343 1.0 0.0
7.878030303029329 1.0 0.0
8.076515151514705 1.0 0.0
1.824242424242199 1.0 0.0
2.022727272726695 1.0 0.0
2.221212121211181 1.0 0.0
2.41969696969563 1.0 0.0
2.618181818180092 1.0 0.0
2.816666666664316 1.0 0.0
3.015151515148624 1.0 0.0
3.213636363633039 1.0 0.0
3.412121212117267 1.0 0.0
3.610606060601583 1.0 0.0
3.809090909085975 1.0 0.0
4.007575757570153 1.0 0.0
4.206060606054539 1.0 0.0
4.404545454539001 1.0 0.0
4.603030303023853 1.0 0.0
4.801515151507715 1.0 0.0
4.999999999992074 1.0 0.0
5.198484848477777 1.0 0.0
5.396969696963081 1.0 0.0
5.595454545448261 1.0 0.0
5.793939393933949 1.0 0.0
5.992424242419331 1.0 0.0
6.190909090904785 1.0 0.0
6.389393939390224 1.0 0.0
6.587878787875795 1.0 0.0
6.786363636361617 1.0 0.0
6.984848484846598 1.0 0.0
7.183333333331875 1.0 0.0
7.381818181816625 1.0 0.0
7.580303030301849 1.0 0.0
7.778787878786936 1.0 0.0
7.977272727272114 1.0 0.0
8.175757575757618 1.0 0.0
8.473728813558951 1.0 0.0
8.672457627118133 1.0 0.0
8.871186440676855 1.0 0.0
9.069915254236154 1.0 0.0
9.268644067794812 1.0 0.0
9.467372881354057 1.0 0.0
9.666101694912944 1.0 0.0
9.864830508471961 1.0 0.0
10.06355932203108 1.0 0.0
10.26228813558986 1.0 0.0
10.46101694914916 1.0 0.0
10.65974576270777 1.0 0.0
10.85847457626706 1.0 0.0
11.05720338982589 1.0 0.0
11.25593220338497 1.0 0.0
11.45466101694402 1.0 0.0
11.65338983050287 1.0 0.0
11.85211864406215 1.0 0.0
12.05084745762035 1.0 0.0
12.24957627117938 1.0 0.0
12.44830508473794 1.0 0.0
12.64703389829659 1.0 0.0
12.84576271185557 1.0 0.0
13.04449152541379 1.0 0.0
13.24322033897301 1.0 0.0
13.44194915253121 1.0 0.0
13.6406779660903 1.0 0.0
13.83940677964874 1.0 0.0
14.03813559320751 1.0 0.0
14.23686440676681 1.0 0.0
14.43559322032663 1.0 0.0
14.63432203388679 1.0 0.0
14.8330508474463 1.0 0.0
15.0317796610067 1.0 0.0
15.23050847456608 1.0 0.0
15.42923728812645 1.0 0.0
15.62796610168606 1.0 0.0
15.82669491524602 1.0 0.0
16.02542372880584 1.0 0.0
16.22415254236431 1.0 0.0
16.42288135592496 1.0 0.0
16.62161016948498 1.0 0.0
16.82033898304518 1.0 0.0
17.01906779660567 1.0 0.0
17.2177966101654 1.0 0.0
17.41652542372565 1.0 0.0
17.61525423728425 1.0 0.0
17.81398305084494 1.0 0.0
18.01271186440355 1.0 0.0
18.21144067796387 1.0 0.0
18.41016949152309 1.0 0.0
18.6088983050827 1.0 0.0
18.80762711864282 1.0 0.0
19.00635593220153 1.0 0.0
19.20508474576211 1.0 0.0
19.40381355932072 1.0 0.0
19.60254237288117 1.0 0.0
19.80127118644013 1.0 0.0
8.374364406779554 1.0 0.0
8.573093220338519 1.0 0.0
8.771822033897509 1.0 0.0
8.970550847456504 1.0 0.0
9.169279661015429 1.0 0.0
9.368008474574502 1.0 0.0
9.566737288133496 1.0 0.0
9.765466101692677 1.0 0.0
9.964194915251602 1.0 0.0
10.16292372881015 1.0 0.0
10.36165254236967 1.0 0.0
10.56038135592849 1.0 0.0
10.75911016948728 1.0 0.0
10.95783898304648 1.0 0.0
11.15656779660554 1.0 0.0
11.35529661016447 1.0 0.0
11.55402542372345 1.0 0.0
11.75275423728253 1.0 0.0
11.95148305084111 1.0 0.0
12.15021186439983 1.0 0.0
12.34894067795883 1.0 0.0
12.54766949151722 1.0 0.0
12.74639830507616 1.0 0.0
12.94512711863486 1.0 0.0
13.14385593219357 1.0 0.0
13.34258474575207 1.0 0.0
13.54131355931069 1.0 0.0
13.7400423728695 1.0 0.0
13.93877118642822 1.0 0.0
14.13749999998697 1.0 0.0
14.33622881354686 1.0 0.0
14.53495762710678 1.0 0.0
14.73368644066656 1.0 0.0
14.93241525422655 1.0 0.0
15.13114406778625 1.0 0.0
15.32987288134641 1.0 0.0
15.52860169490635 1.0 0.0
15.7273305084661 1.0 0.0
15.9260593220261 1.0 0.0
16.12478813558534 1.0 0.0
16.32351694914468 1.0 0.0
16.52224576270527 1.0 0.0
16.72097457626511 1.0 0.0
16.91970338982543 1.0 0.0
17.11843220338561 1.0 0.0
17.31716101694539 1.0 0.0
17.51588983050497 1.0 0.0
17.71461864406449 1.0 0.0
17.91334745762401 1.0 0.0
18.11207627118383 1.0 0.0
18.31080508474307 1.0 0.0
18.50953389830311 1.0 0.0
18.70826271186271 1.0 0.0
18.90699152542239 1.0 0.0
19.10572033898203 1.0 0.0
19.30444915254171 1.0 0.0
19.50317796610107 1.0 0.0
19.70190677966065 1.0 0.0
19.90063559322003 1.0 0.0
20.0 0.7999999999999998 0.0
20.0 0.6000000000013869 0.0
20.0 0.4000000000016644 0.0
20.0 0.2000000000008322 0.0
20.0 0.9000000000000369 0.0
20.0 0.7000000000005904 0.0
20.0 0.5000000000017577 0.0
20.0 0.3000000000012483 0.0
20.0 0.1000000000004161 0.0
19.8 0.0 0.0
19.6 0.0 0.0
19.4 0.0 0.0
19.2 0.0 0.0
19.0 0.0 0.0
18.8 0.0 0.0
18.6 0.0 0.0
18.4 0.0 0.0
18.2 0.0 0.0
18.0 0.0 0.0
17.8 0.0 0.0
17.59999999999999 0.0 0.0
17.4 0.0 0.0
17.2 0.0 0.0
16.99999999999999 0.0 0.0
16.79999999999999 0.0 0.0
16.59999999999999 0.0 0.0
16.4 0.0 0.0
16.2 0.0 0.0
15.99999999999999 0.0 0.0
15.79999999999999 0.0 0.0
15.59999999999999 0.0 0.0
15.4 0.0 0.0
15.2 0.0 0.0
15.0 0.0 0.0
14.79999999999999 0.0 0.0
14.59999999999999 0.0 0.0
14.4 0.0 0.0
14.2 0.0 0.0
13.99999999999999 0.0 0.0
13.8 0.0 0.0
13.59999999999999 0.0 0.0
13.4 0.0 0.0
13.2 0.0 0.0
13.0 0.0 0.0
12.79999999999999 0.0 0.0
12.6 0.0 0.0
12.4 0.0 0.0
12.2 0.0 0.0
11.99999999999999 0.0 0.0
11.8 0.0 0.0
11.6 0.0 0.0
11.4 0.0 0.0
11.2 0.0 0.0
11.0 0.0 0.0
10.8 0.0 0.0
10.6 0.0 0.0
10.4 0.0 0.0
10.2 0.0 0.0
9.999999999999998 0.0 0.0
9.799999999999995 0.0 0.0
9.599999999999998 0.0 0.0
9.399999999999997 0.0 0.0
9.199999999999998 0.0 0.0
8.999999999999996 0.0 0.0
8.799999999999997 0.0 0.0
8.599999999999996 0.0 0.0
8.399999999999999 0.0 0.0
8.199999999999996 0.0 0.0
7.999999999999998 0.0 0.0
7.799999999999997 0.0 0.0
7.599999999999998 0.0 0.0
7.399999999999999 0.0 0.0
7.199999999999998 0.0 0.0
6.999999999999995 0.0 0.0
6.799999999999995 0.0 0.0
6.599999999999998 0.0 0.0
6.399999999999997 0.0 0.0
6.199999999999996 0.0 0.0
5.999999999999998 0.0 0.0
5.799999999999999 0.0 0.0
5.599999999999996 0.0 0.0
5.399999999999995 0.0 0.0
5.199999999999996 0.0 0.0
4.999999999999998 0.0 0.0
4.799999999999997 0.0 0.0
4.599999999999998 0.0 0.0
4.399999999999999 0.0 0.0
4.199999999999999 0.0 0.0
3.999999999999996 0.0 0.0
3.799999999999997 0.0 0.0
3.599999999999998 0.0 0.0
3.399999999999999 0.0 0.0
3.199999999999999 0.0 0.0
3.0 0.0 0.0
2.800000000000001 0.0 0.0
2.599999999999998 0.0 0.0
2.399999999999999 0.0 0.0
2.199999999999996 0.0 0.0
1.999999999999996 0.0 0.0
1.800000000000001 0.0 0.0
1.599999999999998 0.0 0.0
1.399999999999999 0.0 0.0
1.200000000000003 0.0 0.0
1.0 0.0 0.0
0.7999999999999972 0.0 0.0
0.5999999999999979 0.0 0.0
0.3999999999999986 0.0 0.0
0.1999999999999993 0.0 0.0
19.90000000000022 0.0 0.0
19.69999999999997 0.0 0.0
19.49999999999987 0.0 0.0
19.30000000000005 0.0 0.0
19.09999999999999 0.0 0.0
18.89999999999987 0.0 0.0
18.7 0.0 0.0
18.49999999999999 0.0 0.0
18.30000000000001 0.0 0.0
18.09999999999987 0.0 0.0
17.90000000000013 0.0 0.0
17.7 0.0 0.0
17.49999999999987 0.0 0.0
17.30000000000025 0.0 0.0
17.10000000000001 0.0 0.0
16.90000000000005 0.0 0.0
16.70000000000003 0.0 0.0
16.50000000000006 0.0 0.0
16.29999999999997 0.0 0.0
16.09999999999999 0.0 0.0
15.89999999999987 0.0 0.0
15.69999999999999 0.0 0.0
15.49999999999999 0.0 0.0
15.3 0.0 0.0
15.10000000000003 0.0 0.0
14.90000000000005 0.0 0.0
14.69999999999992 0.0 0.0
14.49999999999996 0.0 0.0
14.29999999999999 0.0 0.0
14.10000000000008 0.0 0.0
13.89999999999988 0.0 0.0
13.70000000000003 0.0 0.0
13.50000000000004 0.0 0.0
13.29999999999992 0.0 0.0
13.09999999999995 0.0 0.0
12.90000000000016 0.0 0.0
12.7 0.0 0.0
12.49999999999986 0.0 0.0
12.30000000000003 0.0 0.0
12.10000000000016 0.0 0.0
11.90000000000005 0.0 0.0
11.69999999999994 0.0 0.0
11.49999999999993 0.0 0.0
11.30000000000005 0.0 0.0
11.0999999999999 0.0 0.0
10.90000000000004 0.0 0.0
10.69999999999995 0.0 0.0
10.50000000000012 0.0 0.0
10.29999999999999 0.0 0.0
10.09999999999993 0.0 0.0
9.900000000000077 0.0 0.0
9.699999999999969 0.0 0.0
9.499999999999982 0.0 0.0
9.299999999999969 0.0 0.0
9.100000000000108 0.0 0.0
8.899999999999972 0.0 0.0
8.699999999999958 0.0 0.0
8.499999999999998 0.0 0.0
8.30000000000003 0.0 0.0
8.099999999999977 0.0 0.0
7.899999999999974 0.0 0.0
7.700000000000166 0.0 0.0
7.499999999999854 0.0 0.0
7.299999999999997 0.0 0.0
7.100000000000019 0.0 0.0
6.900000000000002 0.0 0.0
6.699999999999974 0.0 0.0
6.500000000000037 0.0 0.0
6.299999999999981 0.0 0.0
6.100000000000014 0.0 0.0
5.899999999999949 0.0 0.0
5.700000000000049 0.0 0.0
5.499999999999956 0.0 0.0
5.300000000000118 0.0 0.0
5.100000000000005 0.0 0.0
4.900000000000109 0.0 0.0
4.699999999999982 0.0 0.0
4.499999999999936 0.0 0.0
4.300000000000137 0.0 0.0
4.100000000000012 0.0 0.0
3.899999999999888 0.0 0.0
3.69999999999974 0.0 0.0
3.500000000000046 0.0 0.0
3.299999999999965 0.0 0.0
3.099999999999817 0.0 0.0
2.900000000000066 0.0 0.0
2.699999999999793 0.0 0.0
2.500000000000064 0.0 0.0
2.299999999999823 0.0 0.0
[...]
POINT_DATA 2790
VECTORS vector double
1.0 0.0 0.0
0.0 0.0 0.0
0.0 0.0 0.0
0.0 0.0 0.0
1.5803173075 0.0 0.0
1.0 0.0 0.0
0.0 0.0 0.0
0.0 0.0 0.0
0.0 0.0 0.0
0.0 0.0 0.0
0.0 0.0 0.0
0.0 0.0 0.0
0.0 0.0 0.0
0.0 0.0 0.0
0.0 0.0 0.0
0.0 0.0 0.0
0.0 0.0 0.0
0.0 0.0 0.0
0.0 0.0 0.0
0.0 0.0 0.0
0.0 0.0 0.0
0.0 0.0 0.0
0.0 0.0 0.0
0.0 0.0 0.0
0.0 0.0 0.0
0.0 0.0 0.0
0.0 0.0 0.0
0.0 0.0 0.0
0.0 0.0 0.0
0.0 0.0 0.0
0.0 0.0 0.0
0.0 0.0 0.0
0.0 0.0 0.0
0.0 0.0 0.0
0.0 0.0 0.0
0.0 0.0 0.0
0.0 0.0 0.0
0.0 0.0 0.0
0.0 0.0 0.0
0.0 0.0 0.0
0.0 0.0 0.0
0.0 0.0 0.0
0.0 0.0 0.0
0.0 0.0 0.0
0.0 0.0 0.0
0.0 0.0 0.0
0.0 0.0 0.0
0.0 0.0 0.0
0.0 0.0 0.0
0.0 0.0 0.0
0.0 0.0 0.0
0.0 0.0 0.0
0.0 0.0 0.0
0.0 0.0 0.0
0.0 0.0 0.0
0.0 0.0 0.0
0.0 0.0 0.0
0.0 0.0 0.0
0.0 0.0 0.0
0.0 0.0 0.0
0.0 0.0 0.0
0.0 0.0 0.0
0.0 0.0 0.0
0.0 0.0 0.0
0.0 0.0 0.0
0.0 0.0 0.0
0.0 0.0 0.0
0.0 0.0 0.0
0.0 0.0 0.0
0.0 0.0 0.0
0.0 0.0 0.0
0.0 0.0 0.0
0.0 0.0 0.0
0.0 0.0 0.0
0.0 0.0 0.0
0.0 0.0 0.0
0.0 0.0 0.0
0.0 0.0 0.0
0.0 0.0 0.0
0.0 0.0 0.0
0.0 0.0 0.0
0.0 0.0 0.0
0.0 0.0 0.0
0.0 0.0 0.0
0.0 0.0 0.0
0.0 0.0 0.0
0.0 0.0 0.0
0.0 0.0 0.0
0.0 0.0 0.0
0.0 0.0 0.0
0.0 0.0 0.0
0.0 0.0 0.0
0.0 0.0 0.0
0.0 0.0 0.0
0.0 0.0 0.0
0.0 0.0 0.0
0.0 0.0 0.0
0.0 0.0 0.0
0.0 0.0 0.0
0.0 0.0 0.0
0.0 0.0 0.0
0.0 0.0 0.0
0.0 0.0 0.0
0.0 0.0 0.0
0.0 0.0 0.0
0.0 0.0 0.0
0.0 0.0 0.0
0.0 0.0 0.0
0.0 0.0 0.0
0.0 0.0 0.0
0.0 0.0 0.0
0.0 0.0 0.0
0.0 0.0 0.0
0.0 0.0 0.0
0.0 0.0 0.0
0.0 0.0 0.0
0.0 0.0 0.0
0.0 0.0 0.0
0.0 0.0 0.0
0.0 0.0 0.0
0.0 0.0 0.0
0.0 0.0 0.0
0.0 0.0 0.0
0.0 0.0 0.0
0.0 0.0 0.0
0.0 0.0 0.0
0.0 0.0 0.0
0.0 0.0 0.0
0.0 0.0 0.0
0.0 0.0 0.0
0.0 0.0 0.0
0.0 0.0 0.0
0.0 0.0 0.0
0.0 0.0 0.0
0.0 0.0 0.0
0.0 0.0 0.0
0.0 0.0 0.0
0.0 0.0 0.0
0.0 0.0 0.0
0.0 0.0 0.0
0.0 0.0 0.0
0.0 0.0 0.0
0.0 0.0 0.0
0.0 0.0 0.0
0.0 0.0 0.0
0.0 0.0 0.0
0.0 0.0 0.0
0.0 0.0 0.0
0.0 0.0 0.0
0.0 0.0 0.0
0.0 0.0 0.0
0.0 0.0 0.0
0.0 0.0 0.0
0.0 0.0 0.0
0.0 0.0 0.0
0.0 0.0 0.0
0.0 0.0 0.0
0.0 0.0 0.0
0.0 0.0 0.0
0.0 0.0 0.0
0.0 0.0 0.0
0.0 0.0 0.0
0.0 0.0 0.0
0.0 0.0 0.0
0.0 0.0 0.0
0.0 0.0 0.0
0.0 0.0 0.0
0.0 0.0 0.0
0.0 0.0 0.0
0.0 0.0 0.0
0.0 0.0 0.0
0.0 0.0 0.0
0.0 0.0 0.0
0.0 0.0 0.0
0.0 0.0 0.0
0.0 0.0 0.0
0.0 0.0 0.0
0.0 0.0 0.0
0.0 0.0 0.0
0.0 0.0 0.0
0.0 0.0 0.0
0.0 0.0 0.0
0.0 0.0 0.0
0.0 0.0 0.0
0.0 0.0 0.0
0.0 0.0 0.0
0.0 0.0 0.0
0.0 0.0 0.0
0.0 0.0 0.0
0.0 0.0 0.0
0.0 0.0 0.0
0.0 0.0 0.0
0.0 0.0 0.0
0.0 0.0 0.0
0.0 0.0 0.0
0.0 0.0 0.0
0.0 0.0 0.0
0.0 0.0 0.0
0.0 0.0 0.0
0.0 0.0 0.0
0.0 0.0 0.0
0.0 0.0 0.0
0.0 0.0 0.0
0.0 0.0 0.0
0.0 0.0 0.0
0.542719068995 0.000139352450887 0.0
0.958894750515 -0.000102519692596 0.0
1.25063462615 -0.000500006724805 0.0
1.44277577911 -0.000328017948208 0.0
0.277042158314 -6.54685716042e-05 0.0
0.756497008195 0.0012217767147 0.0
1.10992647094 -0.000119421097642 0.0
1.34967453541 -0.00078198892487 0.0
1.51086064987 -0.000274644335803 0.0
1.57906242182 0.0 0.0
1.57901097937 0.0 0.0
1.57914240586 0.0 0.0
1.5792401933 0.0 0.0
1.57845979747 0.0 0.0
1.57906739872 0.0 0.0
1.57880874304 0.0 0.0
1.57761413621 0.0 0.0
1.57717099232 0.0 0.0
1.57607721016 0.0 0.0
1.57403905239 0.0 0.0
1.57279064685 0.0 0.0
1.57108104395 0.0 0.0
1.56859819576 0.0 0.0
1.5656591971 0.0 0.0
1.56359148153 0.0 0.0
1.56254067369 0.0 0.0
1.55955991169 0.0 0.0
1.55734295032 0.0 0.0
1.55615339821 0.0 0.0
1.55296477053 0.0 0.0
1.55054300569 0.0 0.0
1.54912817014 0.0 0.0
1.54568146507 0.0 0.0
1.5429877988 0.0 0.0
1.54131729591 0.0 0.0
1.53758226066 0.0 0.0
1.53458708984 0.0 0.0
1.53263744942 0.0 0.0
1.52858866994 0.0 0.0
1.52527359165 0.0 0.0
1.52303078884 0.0 0.0
1.51865319011 0.0 0.0
1.51500864752 0.0 0.0
1.51248144509 0.0 0.0
1.50776027772 0.0 0.0
1.50380304888 0.0 0.0
1.50105974611 0.0 0.0
1.49567747454 0.0 0.0
1.49122000257 0.0 0.0
1.48823183741 0.0 0.0
1.48299533177 0.0 0.0
1.47832892022 0.0 0.0
1.47511438418 0.0 0.0
1.4696336288 0.0 0.0
1.46469891134 0.0 0.0
1.46129305583 0.0 0.0
1.45565844386 0.0 0.0
1.4505120046 0.0 0.0
1.44679044326 0.0 0.0
1.44105993472 0.0 0.0
1.43575965774 0.0 0.0
1.43163532415 0.0 0.0
1.42838224322 0.0 0.0
1.42207758758 0.0 0.0
1.41550522527 0.0 0.0
1.40987620444 0.0 0.0
1.40514623729 0.0 0.0
1.39884099662 0.0 0.0
1.39301212533 0.0 0.0
1.3885659997 0.0 0.0
1.38197126565 0.0 0.0
1.37581466077 0.0 0.0
1.37116622041 0.0 0.0
1.36428643757 0.0 0.0
1.35787447662 0.0 0.0
1.35289165591 0.0 0.0
1.34581007141 0.0 0.0
1.33912249749 0.0 0.0
1.3335165228 0.0 0.0
1.32817416329 0.0 0.0
1.32006246556 0.0 0.0
1.31311146438 0.0 0.0
1.30543776698 0.0 0.0
1.2970137163 0.0 0.0
1.28977032428 0.0 0.0
1.2809516361 0.0 0.0
1.27211883132 0.0 0.0
1.26402617745 0.0 0.0
1.25605846787 0.0 0.0
1.24693323264 0.0 0.0
1.23818368041 0.0 0.0
1.2293348255 0.0 0.0
1.2196881056 0.0 0.0
1.21010507857 0.0 0.0
1.20021584224 0.0 0.0
1.18984463403 0.0 0.0
1.17913037989 0.0 0.0
1.16787081978 0.0 0.0
1.15638552016 0.0 0.0
1.14396986973 0.0 0.0
1.13033514522 0.0 0.0
1.11631949957 0.0 0.0
1.10046045993 0.0 0.0
1.082216165 0.0 0.0
1.0630854076 0.0 0.0
1.04120744488 0.0 0.0
1.01958202724 0.0 0.0
1.00431025645 0.0 0.0
1.57957628323 0.0 0.0
1.57852379321 0.0 0.0
1.57976068726 0.0 0.0
1.57847633464 0.0 0.0
1.57834384867 0.0 0.0
1.57846609053 0.0 0.0
1.57957350767 0.0 0.0
1.57767026413 0.0 0.0
1.57684187326 0.0 0.0
1.57713974123 0.0 0.0
1.57443575318 0.0 0.0
1.57277746214 0.0 0.0
1.57241385039 0.0 0.0
1.56919811828 0.0 0.0
1.56717924954 0.0 0.0
1.5640713825 0.0 0.0
1.56325354858 0.0 0.0
1.56114586002 0.0 0.0
1.55783395063 0.0 0.0
1.5569151354 0.0 0.0
1.55462509302 0.0 0.0
1.55110996074 0.0 0.0
1.54998837298 0.0 0.0
1.54744202372 0.0 0.0
1.54364823382 0.0 0.0
1.5422862637 0.0 0.0
1.53945413119 0.0 0.0
1.53535059743 0.0 0.0
1.53372438966 0.0 0.0
1.53058263874 0.0 0.0
1.52614572235 0.0 0.0
1.52424112831 0.0 0.0
1.52077769983 0.0 0.0
1.51599109045 0.0 0.0
1.51380460019 0.0 0.0
1.51004136725 0.0 0.0
1.50494315907 0.0 0.0
1.50242206489 0.0 0.0
1.49826479557 0.0 0.0
1.492635685 0.0 0.0
1.48940530927 0.0 0.0
1.48568402988 0.0 0.0
1.47985629168 0.0 0.0
1.47636861492 0.0 0.0
1.47242481219 0.0 0.0
1.46632571721 0.0 0.0
1.46261296559 0.0 0.0
1.45850928759 0.0 0.0
1.45221732172 0.0 0.0
1.44824223439 0.0 0.0
1.4439542809 0.0 0.0
1.43755809538 0.0 0.0
1.43336906752 0.0 0.0
1.42879833673 0.0 0.0
1.42437200232 0.0 0.0
1.41847955681 0.0 0.0
1.41176037435 0.0 0.0
1.4071262168 0.0 0.0
1.40196702771 0.0 0.0
1.39513227674 0.0 0.0
1.39033816511 0.0 0.0
1.38525216336 0.0 0.0
1.37794613633 0.0 0.0
1.37299924691 0.0 0.0
1.36766092632 0.0 0.0
1.36015056833 0.0 0.0
1.35488391722 0.0 0.0
1.34927214423 0.0 0.0
1.34159874533 0.0 0.0
1.33592173271 0.0 0.0
1.3296668869 0.0 0.0
1.3231886587 0.0 0.0
1.31595965919 0.0 0.0
1.30860150403 0.0 0.0
1.30066471916 0.0 0.0
1.2928095873 0.0 0.0
1.28411026638 0.0 0.0
1.2760596624 0.0 0.0
1.26754026987 0.0 0.0
1.25988006555 0.0 0.0
1.25096985343 0.0 0.0
1.24213908282 0.0 0.0
1.23356554514 0.0 0.0
1.22410536154 0.0 0.0
1.21463289628 0.0 0.0
1.2049744665 0.0 0.0
1.19476951279 0.0 0.0
1.1844029694 0.0 0.0
1.17335422485 0.0 0.0
1.16202083198 0.0 0.0
1.15029531969 0.0 0.0
1.1370566812 0.0 0.0
1.12338127147 0.0 0.0
1.10867466876 0.0 0.0
1.09125481118 0.0 0.0
1.07278319197 0.0 0.0
1.05258001569 0.0 0.0
1.03021075495 0.0 0.0
1.0115405749 0.0 0.0
0.99933533221 0.0 0.0
1.0 0.0 0.0
1.0 0.0 0.0
1.0 0.0 0.0
1.0 0.0 0.0
1.0 0.0 0.0
1.0 0.0 0.0
1.0 0.0 0.0
1.0 0.0 0.0
1.0 0.0 0.0
1.16558139571 -0.0703927001744 0.0
1.22301773383 -0.0463334315256 0.0
1.22778494694 -0.0315129934816 0.0
1.08857430832 -0.000111613816016 0.0
1.12517288154 -0.000239121251151 0.0
1.12466822551 -0.000485775556952 0.0
1.12288054051 -0.000858336334376 0.0
1.12234655196 -0.00118346682662 0.0
1.12396946329 -0.00139918925001 0.0
1.1254813367 -0.00156583457241 0.0
1.12721212736 -0.00171676364554 0.0
1.12921034788 -0.00189691689676 0.0
1.13150476938 -0.00211092063279 0.0
1.13410817594 -0.00235892740116 0.0
1.1370260792 -0.00263441710587 0.0
1.09213308645 -0.00264361725537 0.0
1.09619980739 -0.00280682302401 0.0
1.10054297978 -0.00306947419818 0.0
1.10511888124 -0.00329739962177 0.0
1.16059230289 -0.00456786644113 0.0
1.221599117 -0.0231547471189 0.0
1.13210499191 -0.00461588154348 0.0
1.11006670425 -0.00340287229303 0.0
1.2087386233 -0.0177708816787 0.0
1.13939938531 -0.00514119347415 0.0
1.15089405311 -0.00401772695633 0.0
1.1955988945 -0.0140715357255 0.0
1.14773513939 -0.00560621335852 0.0
1.18329546775 -0.0114783374924 0.0
1.18463989343 -0.00690574110551 0.0
1.19537285962 -0.0107147988091 0.0
1.15696031909 -0.00449531520136 0.0
1.17254948332 -0.00998606675874 0.0
0.884797167671 -0.000791988985342 0.0
1.19724522293 -0.143466973932 0.0
1.29339655999 -0.0108160376009 0.0
1.28127751186 -0.012617188635 0.0
1.31240390716 -0.00728926932344 0.0
1.26661559989 -0.0148529910722 0.0
1.31346670838 -0.0065361520479 0.0
1.21645772542 -0.0209840571667 0.0
1.24590838645 -0.0176357889107 0.0
1.31591705749 -0.00599711051305 0.0
1.31768402455 -0.00551668151103 0.0
1.32103800988 -0.0046868141571 0.0
1.32210234375 -0.0044057664763 0.0
1.32281152636 -0.00418334239565 0.0
1.3234311518 -0.00390044563687 0.0
1.3238316003 -0.00361846995101 0.0
1.31477556662 -0.0033764827949 0.0
1.31464564701 -0.00301169973739 0.0
1.31464770099 -0.00271546962295 0.0
1.20999624831 -0.0544756463373 0.0
1.31452365131 -0.00243545156864 0.0
1.31443671983 -0.00219099362504 0.0
1.31441207993 -0.00197969512456 0.0
1.17497983158 -0.0255621141762 0.0
1.31445474995 -0.00178796912229 0.0
1.14063327601 -0.0295209887209 0.0
1.12649953712 -0.0343294926874 0.0
1.31264855166 -0.00159597339265 0.0
1.312456704 -0.00142906541646 0.0
0.841592949384 -0.000334143903308 0.0
1.31157483935 -0.000952242345278 0.0
0.841482396663 -0.000288051001251 0.0
0.976023543783 -0.00724491516768 0.0
0.995616806441 -0.00867748442192 0.0
0.935458862069 -0.00328396826584 0.0
1.08912101863 -0.0198260918302 0.0
1.01951119195 -0.0110279807354 0.0
0.922931937403 -0.00354307391714 0.0
1.04972047435 -0.0146325016531 0.0
0.912691117239 -0.00329178321251 0.0
0.903672205449 -0.0029162216608 0.0
0.895408110671 -0.00224017871867 0.0
0.888667191858 -0.00240545291987 0.0
0.882444273454 -0.0022751522786 0.0
0.876570590881 -0.00210706303378 0.0
0.871185621227 -0.00194883970908 0.0
0.866359515697 -0.00168423168509 0.0
0.861941160216 -0.00157577633909 0.0
0.858067213965 -0.00140419475962 0.0
0.854567831781 -0.00125750033404 0.0
0.851430339931 -0.00114092949055 0.0
0.848608223269 -0.00104564768655 0.0
1.31539561014 -0.000389539491321 0.0
0.846069024024 -0.00095126332423 0.0
0.843816934154 -0.000865473099581 0.0
0.842034547744 -0.000626309075977 0.0
0.840829735442 -0.00038382571264 0.0
1.33260475569 -0.000156397333711 0.0
1.03252553458 -0.0338699114573 0.0
1.33807912468 -0.000201944315174 0.0
1.32036371583 -0.00507694966729 0.0
1.31329494816 -0.00848610754295 0.0
1.3044627345 -0.0096279638079 0.0
1.33149210318 -0.00535221473293 0.0
0.839914903903 -0.00336939099421 0.0
0.880012295043 -0.0023040593688 0.0
0.897768943583 -0.00361373303962 0.0
0.90716042702 -0.00791185246585 0.0
1.17855755535 -0.0750997207932 0.0
1.03985278157 -0.0275497886364 0.0
1.34020042252 -0.000271747346753 0.0
1.38695360712 -0.0032533606897 0.0
1.38350744848 -0.00349519240041 0.0
1.13719891946 -0.0208912266507 0.0
1.37696764248 -0.00321028316509 0.0
1.07384328089 -0.0282493352817 0.0
1.3795194826 -0.00373741511438 0.0
1.37906213683 -0.0028986339492 0.0
1.3808384622 -0.00261404049342 0.0
1.3706137334 -0.00404640546176 0.0
0.951886542129 -0.0159556041326 0.0
1.38244073473 -0.00235121173766 0.0
1.36654178481 -0.00423531757666 0.0
1.3839207889 -0.00211670167634 0.0
1.38532029576 -0.00191324061812 0.0
1.18341022966 -0.0170249488727 0.0
1.38663779548 -0.00172736618024 0.0
1.37771760131 -0.00154907783663 0.0
1.42615644211 -0.00122700897317 0.0
0.62071072211 6.14483414921e-05 0.0
1.35542898681 -0.00492362712285 0.0
1.42312106885 -0.000786520129887 0.0
0.636135746631 7.92740714445e-05 0.0
0.595328434278 0.00033670109351 0.0
1.42304283841 -0.000281638825132 0.0
0.619485067333 0.000105108925908 0.0
1.35083122275 -0.00517917165056 0.0
1.2197887881 -0.0144288131789 0.0
0.620418398772 6.28718940532e-06 0.0
0.622046751815 -5.31483379946e-05 0.0
0.623972573572 -8.83163860117e-05 0.0
0.626157004104 -0.000117788109581 0.0
1.34402868951 -0.00558090530522 0.0
1.24966422801 -0.0124783418974 0.0
0.628590614897 -0.000159860880929 0.0
0.631320493071 -0.000214056317093 0.0
0.634409600503 -0.000290703653758 0.0
0.637810462481 -0.000347847047281 0.0
0.642330313949 -0.000570666057505 0.0
1.33546263296 -0.00608900385127 0.0
1.2733346355 -0.0108769908506 0.0
0.646694231669 -0.000644435132608 0.0
0.651526649934 -0.00073815809268 0.0
0.5226666627 -0.000652744052024 0.0
0.656820926335 -0.000814616684341 0.0
0.844609961665 -0.00834162038321 0.0
0.681652379801 -0.000960679607012 0.0
0.805760601804 -0.00588392566915 0.0
0.689912686694 -0.00115826221998 0.0
0.662171097591 -0.00083702171657 0.0
0.776997992286 -0.00440758703944 0.0
0.698551090866 -0.00103207296946 0.0
0.754600585651 -0.00334201156529 0.0
0.546189444502 0.000249034765285 0.0
0.632228169821 -0.00239042348952 0.0
0.56520187796 -0.00027995115193 0.0
1.32359342364 -0.00609876590298 0.0
1.29253802407 -0.00959901840086 0.0
1.30584950319 -0.00881028900041 0.0
1.33013272106 -0.0068656465212 0.0
1.35964510399 -0.00468865903843 0.0
1.36786577162 -0.00430068595238 0.0
0.648905250359 -0.00275253314831 0.0
0.863026633995 -0.00786097150771 0.0
1.42561319129 -0.000211589120322 0.0
1.03773601277 -0.0516493044274 0.0
1.12033092564 -0.000665009881372 0.0
1.18799169753 -0.000307268145979 0.0
1.0406605825 -0.0189485157029 0.0
0.517743513813 5.60102641381e-05 0.0
1.1015096523 -0.0748212903338 0.0
1.03519681856 -0.0660796315104 0.0
0.564934899687 -0.00134710675526 0.0
1.42994136008 -0.00278067658307 0.0
1.42497364865 -0.00304338854838 0.0
1.43364377831 -0.00243145622732 0.0
1.41865394838 -0.00323751350384 0.0
1.27604826877 -0.290026117385 0.0
1.41136981211 -0.00343093540081 0.0
1.4382497053 -0.00220468697467 0.0
1.40418721681 -0.00350004465346 0.0
1.44235332557 -0.00198518637496 0.0
1.44604627255 -0.00178290760978 0.0
1.19512387895 -0.0100476854823 0.0
1.37325969031 -0.00426347821802 0.0
1.10725718369 -0.0156991284294 0.0
1.36301997148 -0.00455084570233 0.0
1.2291587657 -0.00885583901769 0.0
1.44938266838 -0.00160152106136 0.0
1.35164382866 -0.00481314990537 0.0
1.25803302826 -0.00783403707921 0.0
1.15522436897 -0.0118922996773 0.0
1.28260723495 -0.00701397068964 0.0
1.45242332273 -0.0014397896417 0.0
1.45398748329 -0.00130551421856 0.0
1.45532165914 -0.00120293705657 0.0
1.45405840308 -0.000726081102245 0.0
1.45653052489 -0.000266013109959 0.0
1.45817970248 -2.67408995666e-05 0.0
1.16191686742 -0.00436629644117 0.0
0.759263701687 -0.00989100895381 0.0
0.8134636428 -0.0171432969692 0.0
0.874137238172 -0.0226781387109 0.0
0.726359932661 -0.00882844076324 0.0
0.487907411615 -0.000427247268322 0.0
0.488853543086 -0.000471203926433 0.0
0.490313521389 -0.000522080846875 0.0
1.20794251708 -0.00849426242376 0.0
0.492076885413 -0.000542732320594 0.0
0.494065067525 -0.000571779978065 0.0
0.496248805437 -0.000608855863228 0.0
1.12491371827 -6.30101604699e-05 0.0
1.21222719494 -0.0108264351892 0.0
0.498669702918 -0.00065567117536 0.0
1.12480881271 -9.8431370697e-05 0.0
0.501385730388 -0.000719753944386 0.0
0.504440793626 -0.000824304268835 0.0
0.507644064544 -0.000475622690245 0.0
0.511349335727 -0.00054039983483 0.0
1.11292314781 -0.000657869081317 0.0
0.515517940138 -0.000604186666004 0.0
1.11410523197 -0.000583139296874 0.0
0.495108473833 -0.000222986731062 0.0
0.520091767208 -0.000669081101956 0.0
1.11544162864 -0.000924678695857 0.0
0.497131461148 -0.000537517402636 0.0
1.11738097767 -0.00106692756256 0.0
0.494018531594 -0.000667875369549 0.0
0.524988918521 -0.000746246377517 0.0
1.11902782824 -0.00121100459506 0.0
0.494641217606 -0.000509550643219 0.0
0.515692388264 -0.000356588880231 0.0
1.12091550798 -0.00136868986257 0.0
0.698444075414 -0.00808315540792 0.0
1.12307181508 -0.00155720694267 0.0
1.1255506339 -0.0017840926908 0.0
0.543691131598 -0.000689446345877 0.0
1.12824611276 -0.00202056895673 0.0
1.12866436559 -0.00239546392244 0.0
1.22926398974 -0.0264547080671 0.0
0.661481016819 -0.00546886722359 0.0
0.550693905095 -0.00111500363592 0.0
1.13020270958 -0.00247807332949 0.0
1.13406819169 -0.00273383566295 0.0
0.635000598135 -0.00421233364071 0.0
0.55821218676 -0.0011724799515 0.0
1.13819236794 -0.00294761363135 0.0
0.614864382313 -0.0033861770391 0.0
0.541600679577 -0.000618387899005 0.0
1.14255944382 -0.00313550335987 0.0
1.14455833342 -0.00332877084986 0.0
0.585021902278 -0.00240772250165 0.0
1.15617523151 -0.00491265054738 0.0
1.16250133417 -0.00426555444477 0.0
1.16885763918 -0.00466047938066 0.0
1.22471804484 -0.0206027105704 0.0
1.17588545749 -0.00517052726485 0.0
1.21713260825 -0.0164865064874 0.0
1.1802944271 -0.00584109312633 0.0
1.2088479567 -0.0135341884466 0.0
1.19756922611 -0.0114256722893 0.0
1.22105311702 -0.0373586327717 0.0
1.19870115597 -0.0513492729521 0.0
1.18189823966 -0.0540692198992 0.0
1.19547982551 -0.00992367327747 0.0
1.22499949396 -0.0350335578199 0.0
1.22684420352 -0.0268443736447 0.0
1.20438430144 -0.0121601548491 0.0
1.1720258107 -0.00710743710217 0.0
1.21398449996 -0.0152981098627 0.0
1.16385459584 -0.00654128290679 0.0
1.22258789383 -0.0198190649671 0.0
1.15722931828 -0.00599393682944 0.0
0.609913637055 -0.0021678800465 0.0
1.15733342929 -0.00522810695103 0.0
0.629833698609 -0.00308410015715 0.0
0.567802768952 -0.00143857355953 0.0
0.701912722066 -0.0075661395489 0.0
1.1383049267 -0.00459184565711 0.0
0.652224898517 -0.00395253358127 0.0
0.564663250732 -0.00172899501323 0.0
1.13419801677 -0.00449884549491 0.0
1.13000669388 -0.00424087773101 0.0
0.6820894464 -0.00529976004453 0.0
0.557348982935 -0.00161772442315 0.0
1.12603065309 -0.00396366209959 0.0
1.45322740127 -0.00112914731638 0.0
1.12225657352 -0.00370010922996 0.0
1.13212324602 -0.00313425603211 0.0
0.527757794085 -0.000493938489493 0.0
1.12972633417 -0.00286770730119 0.0
1.12720535297 -0.00262041148386 0.0
1.12493866949 -0.00239361170864 0.0
1.12296708442 -0.00220296376652 0.0
1.12126034874 -0.00204278557376 0.0
1.11978597942 -0.00188496848347 0.0
1.11789596031 -0.00179580094621 0.0
1.11683641427 -0.000196668885325 0.0
1.11710631193 -0.00105359489915 0.0
1.11651859277 -0.000872134066681 0.0
1.11265485924 -0.000714713030576 0.0
1.38275357058 -0.00399869039449 0.0
1.45523828057 -0.00137266396448 0.0
0.536679996975 -0.0013699214506 0.0
0.527095667416 -0.0014033535044 0.0
0.52224961445 -0.00130915415636 0.0
0.517781356112 -0.00124662795156 0.0
0.513717269341 -0.00120480908581 0.0
1.45373879777 -0.00131559106517 0.0
0.510272817457 -0.000815786983768 0.0
0.507061967001 -0.000863529098498 0.0
0.50411021807 -0.000791595654232 0.0
0.501498476242 -0.000737549893139 0.0
0.499162074956 -0.000694946518592 0.0
0.497050344849 -0.000660549630897 0.0
1.45245062818 -0.00146552196739 0.0
0.49514122349 -0.000617923668786 0.0
0.493460655214 -0.000584260586394 0.0
0.492191691045 -0.00052044498773 0.0
0.4946673953 -0.000114460892497 0.0
1.44946245534 -0.00162629908183 0.0
1.44620709683 -0.00180317321438 0.0
1.31104011552 -0.00705011855288 0.0
1.44263705913 -0.00200170722979 0.0
1.33239462466 -0.00509825144133 0.0
0.886721230014 -0.00018160532461 0.0
1.43868944026 -0.00221805083816 0.0
1.00661956938 -0.0125249325516 0.0
1.08309735253 -0.0176290416138 0.0
1.45375235636 -0.000592116683255 0.0
1.43428461401 -0.00244163319552 0.0
1.2145848959 -0.101577750496 0.0
1.42959332504 -0.00264269514353 0.0
1.4390827326 -0.00217493318881 0.0
1.38938346269 -0.00342244810239 0.0
1.43182685696 -0.00233296906732 0.0
1.42391239286 -0.00249039612257 0.0
1.45262735503 -0.000423388181908 0.0
1.41505598084 -0.0026644911078 0.0
1.4063401685 -0.00273990192684 0.0
1.13401767406 -0.0105817711521 0.0
1.17607293581 -0.00882275631081 0.0
1.38029820707 -0.00315470581295 0.0
1.34413002245 -0.00382421358981 0.0
1.29171511817 -0.00568019260133 0.0
1.36940123905 -0.00337878835063 0.0
1.21163007484 -0.0078238485723 0.0
1.29820540795 -0.00186010258516 0.0