# vtk DataFile Version 2.0
2D Simulation Python
ASCII
DATASET UNSTRUCTURED_GRID
FIELD FieldData 1
NODES 1 2 int
14968 7299

POINTS 14968 double
0.0 1.0 0.0
1.725 1.0 0.0
8.275 1.0 0.0
10.0 1.0 0.0
10.0 0.0 0.0
0.0 0.0 0.0
0.05948275862057954 1.0 0.0
0.1189655172411507 1.0 0.0
0.1784482758617532 1.0 0.0
0.2379310344823185 1.0 0.0
0.2974137931028384 1.0 0.0
0.3568965517233564 1.0 0.0
0.4163793103438745 1.0 0.0
0.475862068964385 1.0 0.0
0.535344827584889 1.0 0.0
0.5948275862053855 1.0 0.0
0.654310344825882 1.0 0.0
0.7137931034463786 1.0 0.0
0.7732758620668752 1.0 0.0
0.8327586206874149 1.0 0.0
0.8922413793081027 1.0 0.0
0.9517241379289384 1.0 0.0
1.011206896549752 1.0 0.0
1.070689655170612 1.0 0.0
1.130172413791474 1.0 0.0
1.189655172412335 1.0 0.0
1.249137931033183 1.0 0.0
1.308620689654105 1.0 0.0
1.368103448274985 1.0 0.0
1.427586206895818 1.0 0.0
1.487068965516628 1.0 0.0
1.546551724137449 1.0 0.0
1.606034482758285 1.0 0.0
1.665517241379139 1.0 0.0
0.02974137931029072 1.0 0.0
0.08922413793086324 1.0 0.0
0.1487068965514534 1.0 0.0
0.208189655172049 1.0 0.0
0.2676724137925698 1.0 0.0
0.3271551724130939 1.0 0.0
0.3866379310336222 1.0 0.0
0.4461206896541293 1.0 0.0
0.5056034482746439 1.0 0.0
0.5650862068951479 1.0 0.0
0.624568965515645 1.0 0.0
0.6840517241361357 1.0 0.0
0.7435344827566197 1.0 0.0
0.8030172413771515 1.0 0.0
0.8624999999976763 1.0 0.0
0.9219827586185091 1.0 0.0
0.9814655172393557 1.0 0.0
1.040948275860181 1.0 0.0
1.100431034481038 1.0 0.0
1.159913793101895 1.0 0.0
1.219396551722753 1.0 0.0
1.278879310343654 1.0 0.0
1.338362068964579 1.0 0.0
1.397844827585388 1.0 0.0
1.457327586206215 1.0 0.0
1.516810344826985 1.0 0.0
1.576293103447828 1.0 0.0
1.635775862068708 1.0 0.0
1.695258620689603 1.0 0.0
1.784545454545345 1.0 0.0
1.844090909090676 1.0 0.0
1.903636363635991 1.0 0.0
1.963181818181336 1.0 0.0
2.022727272726716 1.0 0.0
2.082272727272112 1.0 0.0
2.141818181817408 1.0 0.0
2.201363636362702 1.0 0.0
2.260909090908037 1.0 0.0
2.320454545453433 1.0 0.0
2.379999999998759 1.0 0.0
2.439545454544053 1.0 0.0
2.499090909089358 1.0 0.0
2.558636363634754 1.0 0.0
2.618181818180109 1.0 0.0
2.677727272725404 1.0 0.0
2.737272727270631 1.0 0.0
2.796818181815906 1.0 0.0
2.856363636361191 1.0 0.0
2.915909090906408 1.0 0.0
2.975454545451703 1.0 0.0
3.034999999997049 1.0 0.0
3.094545454542377 1.0 0.0
3.154090909087591 1.0 0.0
3.21363636363288 1.0 0.0
3.273181818178196 1.0 0.0
3.332727272723555 1.0 0.0
3.392272727268849 1.0 0.0
3.451818181814208 1.0 0.0
3.511363636359524 1.0 0.0
3.570909090904812 1.0 0.0
3.630454545450026 1.0 0.0
3.689999999995355 1.0 0.0
3.749545454540702 1.0 0.0
3.809090909085996 1.0 0.0
3.868636363631291 1.0 0.0
3.928181818176585 1.0 0.0
3.987727272721861 1.0 0.0
4.047272727267021 1.0 0.0
4.106818181812208 1.0 0.0
4.166363636357625 1.0 0.0
4.225909090903122 1.0 0.0
4.285454545448432 1.0 0.0
4.34499999999356 1.0 0.0
4.404545454538917 1.0 0.0
4.464090909084414 1.0 0.0
4.523636363629791 1.0 0.0
4.583181818174936 1.0 0.0
4.642727272720208 1.0 0.0
4.702272727265705 1.0 0.0
4.761818181811142 1.0 0.0
4.821363636356348 1.0 0.0
4.880909090901557 1.0 0.0
4.940454545446997 1.0 0.0
4.999999999992493 1.0 0.0
5.059545454538018 1.0 0.0
5.119090909083717 1.0 0.0
5.17863636362933 1.0 0.0
5.238181818174827 1.0 0.0
5.297727272720321 1.0 0.0
5.357272727265989 1.0 0.0
5.416818181811662 1.0 0.0
5.476363636357158 1.0 0.0
5.535909090902654 1.0 0.0
5.595454545448262 1.0 0.0
5.65499999999396 1.0 0.0
5.714545454539491 1.0 0.0
5.774090909085032 1.0 0.0
5.83363636363093 1.0 0.0
5.893181818176673 1.0 0.0
5.952727272722171 1.0 0.0
6.012272727267668 1.0 0.0
6.071818181813491 1.0 0.0
6.131363636359353 1.0 0.0
6.190909090904849 1.0 0.0
6.250454545450346 1.0 0.0
6.309999999996052 1.0 0.0
6.369545454541951 1.0 0.0
6.429090909087529 1.0 0.0
6.488636363633026 1.0 0.0
6.548181818178611 1.0 0.0
6.60772727272451 1.0 0.0
6.667272727270209 1.0 0.0
6.726818181815705 1.0 0.0
6.786363636361202 1.0 0.0
6.845909090907071 1.0 0.0
6.905454545452889 1.0 0.0
6.964999999998385 1.0 0.0
7.024545454543881 1.0 0.0
7.084090909089378 1.0 0.0
7.143636363634876 1.0 0.0
7.20318181818037 1.0 0.0
7.262727272725868 1.0 0.0
7.322272727271365 1.0 0.0
7.381818181816859 1.0 0.0
7.441363636362357 1.0 0.0
7.500909090907854 1.0 0.0
7.560454545453348 1.0 0.0
7.619999999998846 1.0 0.0
7.679545454544343 1.0 0.0
7.739090909089839 1.0 0.0
7.798636363635335 1.0 0.0
7.858181818180832 1.0 0.0
7.917727272726328 1.0 0.0
7.977272727271824 1.0 0.0
8.036818181817441 1.0 0.0
8.09636363636334 1.0 0.0
8.155909090909008 1.0 0.0
8.215454545454504 1.0 0.0
1.754772727272673 1.0 0.0
1.814318181818009 1.0 0.0
1.873863636363333 1.0 0.0
1.933409090908672 1.0 0.0
1.992954545454031 1.0 0.0
2.052499999999414 1.0 0.0
2.112045454544734 1.0 0.0
2.171590909090055 1.0 0.0
2.231136363635354 1.0 0.0
2.290681818180733 1.0 0.0
2.35022727272609 1.0 0.0
2.409772727271409 1.0 0.0
2.469318181816729 1.0 0.0
2.528863636362083 1.0 0.0
2.588409090907435 1.0 0.0
2.647954545452764 1.0 0.0
2.70749999999803 1.0 0.0
2.767045454543256 1.0 0.0
2.826590909088563 1.0 0.0
2.886136363633805 1.0 0.0
2.945681818179043 1.0 0.0
3.005227272724398 1.0 0.0
3.064772727269736 1.0 0.0
3.124318181814993 1.0 0.0
3.183863636360237 1.0 0.0
3.243409090905498 1.0 0.0
3.302954545450869 1.0 0.0
3.362499999996201 1.0 0.0
3.422045454541534 1.0 0.0
3.481590909086889 1.0 0.0
3.541136363632178 1.0 0.0
3.600681818177425 1.0 0.0
3.660227272722711 1.0 0.0
3.719772727268038 1.0 0.0
3.779318181813342 1.0 0.0
3.838863636358643 1.0 0.0
3.898409090903943 1.0 0.0
3.957954545449228 1.0 0.0
4.017499999994459 1.0 0.0
4.077045454539567 1.0 0.0
4.136590909084866 1.0 0.0
4.196136363630398 1.0 0.0
4.255681818175789 1.0 0.0
4.31522727272101 1.0 0.0
4.374772727266199 1.0 0.0
4.434318181811665 1.0 0.0
4.493863636357126 1.0 0.0
4.55340909090234 1.0 0.0
4.612954545447561 1.0 0.0
4.672499999992919 1.0 0.0
4.732045454538429 1.0 0.0
4.791590909083769 1.0 0.0
4.851136363628941 1.0 0.0
4.910681818174305 1.0 0.0
4.970227272719745 1.0 0.0
5.029772727265215 1.0 0.0
5.089318181810858 1.0 0.0
5.148863636356518 1.0 0.0
5.208409090902078 1.0 0.0
5.267954545447563 1.0 0.0
5.32749999999314 1.0 0.0
5.387045454538812 1.0 0.0
5.446590909084395 1.0 0.0
5.506136363629908 1.0 0.0
5.565681818175434 1.0 0.0
5.625227272721118 1.0 0.0
5.68477272726672 1.0 0.0
5.744318181812282 1.0 0.0
5.803863636357981 1.0 0.0
5.863409090903753 1.0 0.0
5.922954545449448 1.0 0.0
5.98249999999492 1.0 0.0
6.042045454540572 1.0 0.0
6.10159090908641 1.0 0.0
6.161136363632073 1.0 0.0
6.220681818177569 1.0 0.0
6.280227272723183 1.0 0.0
6.339772727268974 1.0 0.0
6.399318181814714 1.0 0.0
6.45886363636027 1.0 0.0
6.518409090905834 1.0 0.0
6.577954545451583 1.0 0.0
6.637499999997363 1.0 0.0
6.697045454542931 1.0 0.0
6.756590909088454 1.0 0.0
6.8161363636342 1.0 0.0
6.875681818179999 1.0 0.0
6.935227272725616 1.0 0.0
6.994772727271133 1.0 0.0
7.054318181816615 1.0 0.0
7.113863636362105 1.0 0.0
7.173409090907585 1.0 0.0
7.232954545453119 1.0 0.0
7.292499999998594 1.0 0.0
7.352045454544166 1.0 0.0
7.411590909089607 1.0 0.0
7.471136363635079 1.0 0.0
7.530681818180621 1.0 0.0
7.590227272726104 1.0 0.0
7.649772727271595 1.0 0.0
7.709318181817098 1.0 0.0
7.768863636362564 1.0 0.0
7.828409090908048 1.0 0.0
7.88795454545358 1.0 0.0
7.947499999999069 1.0 0.0
8.007045454544631 1.0 0.0
8.066590909090369 1.0 0.0
8.126136363636165 1.0 0.0
8.185681818181749 1.0 0.0
8.245227272727199 1.0 0.0
8.334482758620055 1.0 0.0
8.393965517240051 1.0 0.0
8.453448275859904 1.0 0.0
8.51293103448045 1.0 0.0
8.572413793100301 1.0 0.0
8.631896551720153 1.0 0.0
8.6913793103407 1.0 0.0
8.750862068961245 1.0 0.0
8.810344827581792 1.0 0.0
8.869827586202339 1.0 0.0
8.929310344822884 1.0 0.0
8.988793103443431 1.0 0.0
9.048275862063978 1.0 0.0
9.107758620684523 1.0 0.0
9.16724137930507 1.0 0.0
9.226724137925617 1.0 0.0
9.286206896546162 1.0 0.0
9.345689655167401 1.0 0.0
9.405172413788595 1.0 0.0
9.46465517240963 1.0 0.0
9.524137931030667 1.0 0.0
9.583620689651704 1.0 0.0
9.643103448272907 1.0 0.0
9.702586206894148 1.0 0.0
9.762068965515388 1.0 0.0
9.821551724136627 1.0 0.0
9.881034482757867 1.0 0.0
9.940517241378963 1.0 0.0
8.304741379310085 1.0 0.0
8.364224137930028 1.0 0.0
8.423706896549978 1.0 0.0
8.48318965517026 1.0 0.0
8.542672413790376 1.0 0.0
8.602155172410113 1.0 0.0
8.661637931030402 1.0 0.0
8.721120689651029 1.0 0.0
8.78060344827138 1.0 0.0
8.84008620689213 1.0 0.0
8.899568965512502 1.0 0.0
8.959051724133055 1.0 0.0
9.018534482753648 1.0 0.0
9.078017241374363 1.0 0.0
9.137499999994688 1.0 0.0
9.196982758615343 1.0 0.0
9.256465517235805 1.0 0.0
9.315948275856895 1.0 0.0
9.375431034477998 1.0 0.0
9.434913793099138 1.0 0.0
9.494396551720149 1.0 0.0
9.55387931034146 1.0 0.0
9.613362068962203 1.0 0.0
9.672844827583809 1.0 0.0
9.73232758620488 1.0 0.0
9.791810344826095 1.0 0.0
9.851293103447228 1.0 0.0
9.910775862068462 1.0 0.0
9.970258620689481 1.0 0.0
10.0 0.9411764705879904 0.0
10.0 0.882352941175982 0.0
10.0 0.8235294117645425 0.0
10.0 0.764705882353186 0.0
10.0 0.7058823529418295 0.0
10.0 0.6470588235304731 0.0
10.0 0.5882352941191167 0.0
10.0 0.5294117647077601 0.0
10.0 0.4705882352960771 0.0
10.0 0.4117647058840672 0.0
10.0 0.3529411764720576 0.0
10.0 0.2941176470600479 0.0
10.0 0.2352941176480381 0.0
10.0 0.1764705882360285 0.0
10.0 0.1176470588240187 0.0
10.0 0.05882352941200908 0.0
10.0 0.9705882352939621 0.0
10.0 0.9117647058820033 0.0
10.0 0.8529411764702793 0.0
10.0 0.7941176470588772 0.0
10.0 0.7352941176474532 0.0
10.0 0.6764705882361493 0.0
10.0 0.6176470588248275 0.0
10.0 0.5588235294134586 0.0
10.0 0.5000000000020175 0.0
10.0 0.4411764705900721 0.0
10.0 0.3823529411780624 0.0
10.0 0.3235294117660528 0.0
10.0 0.264705882354043 0.0
10.0 0.2058823529420333 0.0
10.0 0.1470588235300236 0.0
10.0 0.0882352941180139 0.0
10.0 0.02941176470600448 0.0
9.940119760479043 0.0 0.0
9.880239520958083 0.0 0.0
9.820359281437126 0.0 0.0
9.760479041916167 0.0 0.0
9.70059880239521 0.0 0.0
9.640718562874252 0.0 0.0
9.580838323353293 0.0 0.0
[...]
POINT_DATA 14968
VECTORS vector double
0.0 0.0 0.0
0.0 0.0 0.0
0.0 0.0 0.0
0.0 0.0 0.0
1.15067629566 0.0 0.0
1.5 0.0 0.0
0.0 0.0 0.0
0.0 0.0 0.0
0.0 0.0 0.0
0.0 0.0 0.0
0.0 0.0 0.0
0.0 0.0 0.0
0.0 0.0 0.0
0.0 0.0 0.0
0.0 0.0 0.0
0.0 0.0 0.0
0.0 0.0 0.0
0.0 0.0 0.0
0.0 0.0 0.0
0.0 0.0 0.0
0.0 0.0 0.0
0.0 0.0 0.0
0.0 0.0 0.0
0.0 0.0 0.0
0.0 0.0 0.0
0.0 0.0 0.0
0.0 0.0 0.0
0.0 0.0 0.0
0.0 0.0 0.0
0.0 0.0 0.0
0.0 0.0 0.0
0.0 0.0 0.0
0.0 0.0 0.0
0.0 0.0 0.0
0.0 0.0 0.0
0.0 0.0 0.0
0.0 0.0 0.0
0.0 0.0 0.0
0.0 0.0 0.0
0.0 0.0 0.0
0.0 0.0 0.0
0.0 0.0 0.0
0.0 0.0 0.0
0.0 0.0 0.0
0.0 0.0 0.0
0.0 0.0 0.0
0.0 0.0 0.0
0.0 0.0 0.0
0.0 0.0 0.0
0.0 0.0 0.0
0.0 0.0 0.0
0.0 0.0 0.0
0.0 0.0 0.0
0.0 0.0 0.0
0.0 0.0 0.0
0.0 0.0 0.0
0.0 0.0 0.0
0.0 0.0 0.0
0.0 0.0 0.0
0.0 0.0 0.0
0.0 0.0 0.0
0.0 0.0 0.0
0.0 0.0 0.0
0.0 0.0 0.0
0.0 0.0 0.0
0.0 0.0 0.0
0.0 0.0 0.0
0.0 0.0 0.0
0.0 0.0 0.0
0.0 0.0 0.0
0.0 0.0 0.0
0.0 0.0 0.0
0.0 0.0 0.0
0.0 0.0 0.0
0.0 0.0 0.0
0.0 0.0 0.0
0.0 0.0 0.0
0.0 0.0 0.0
0.0 0.0 0.0
0.0 0.0 0.0
0.0 0.0 0.0
0.0 0.0 0.0
0.0 0.0 0.0
0.0 0.0 0.0
0.0 0.0 0.0
0.0 0.0 0.0
0.0 0.0 0.0
0.0 0.0 0.0
0.0 0.0 0.0
0.0 0.0 0.0
0.0 0.0 0.0
0.0 0.0 0.0
0.0 0.0 0.0
0.0 0.0 0.0
0.0 0.0 0.0
0.0 0.0 0.0
0.0 0.0 0.0
0.0 0.0 0.0
0.0 0.0 0.0
0.0 0.0 0.0
0.0 0.0 0.0
0.0 0.0 0.0
0.0 0.0 0.0
0.0 0.0 0.0
0.0 0.0 0.0
0.0 0.0 0.0
0.0 0.0 0.0
0.0 0.0 0.0
0.0 0.0 0.0
0.0 0.0 0.0
0.0 0.0 0.0
0.0 0.0 0.0
0.0 0.0 0.0
0.0 0.0 0.0
0.0 0.0 0.0
0.0 0.0 0.0
0.0 0.0 0.0
0.0 0.0 0.0
0.0 0.0 0.0
0.0 0.0 0.0
0.0 0.0 0.0
0.0 0.0 0.0
0.0 0.0 0.0
0.0 0.0 0.0
0.0 0.0 0.0
0.0 0.0 0.0
0.0 0.0 0.0
0.0 0.0 0.0
0.0 0.0 0.0
0.0 0.0 0.0
0.0 0.0 0.0
0.0 0.0 0.0
0.0 0.0 0.0
0.0 0.0 0.0
0.0 0.0 0.0
0.0 0.0 0.0
0.0 0.0 0.0
0.0 0.0 0.0
0.0 0.0 0.0
0.0 0.0 0.0
0.0 0.0 0.0
0.0 0.0 0.0
0.0 0.0 0.0
0.0 0.0 0.0
0.0 0.0 0.0
0.0 0.0 0.0
0.0 0.0 0.0
0.0 0.0 0.0
0.0 0.0 0.0
0.0 0.0 0.0
0.0 0.0 0.0
0.0 0.0 0.0
0.0 0.0 0.0
0.0 0.0 0.0
0.0 0.0 0.0
0.0 0.0 0.0
0.0 0.0 0.0
0.0 0.0 0.0
0.0 0.0 0.0
0.0 0.0 0.0
0.0 0.0 0.0
0.0 0.0 0.0
0.0 0.0 0.0
0.0 0.0 0.0
0.0 0.0 0.0
0.0 0.0 0.0
0.0 0.0 0.0
0.0 0.0 0.0
0.0 0.0 0.0
0.0 0.0 0.0
0.0 0.0 0.0
0.0 0.0 0.0
0.0 0.0 0.0
0.0 0.0 0.0
0.0 0.0 0.0
0.0 0.0 0.0
0.0 0.0 0.0
0.0 0.0 0.0
0.0 0.0 0.0
0.0 0.0 0.0
0.0 0.0 0.0
0.0 0.0 0.0
0.0 0.0 0.0
0.0 0.0 0.0
0.0 0.0 0.0
0.0 0.0 0.0
0.0 0.0 0.0
0.0 0.0 0.0
0.0 0.0 0.0
0.0 0.0 0.0
0.0 0.0 0.0
0.0 0.0 0.0
0.0 0.0 0.0
0.0 0.0 0.0
0.0 0.0 0.0
0.0 0.0 0.0
0.0 0.0 0.0
0.0 0.0 0.0
0.0 0.0 0.0
0.0 0.0 0.0
0.0 0.0 0.0
0.0 0.0 0.0
0.0 0.0 0.0
0.0 0.0 0.0
0.0 0.0 0.0
0.0 0.0 0.0
0.0 0.0 0.0
0.0 0.0 0.0
0.0 0.0 0.0
0.0 0.0 0.0
0.0 0.0 0.0
0.0 0.0 0.0
0.0 0.0 0.0
0.0 0.0 0.0
0.0 0.0 0.0
0.0 0.0 0.0
0.0 0.0 0.0
0.0 0.0 0.0
0.0 0.0 0.0
0.0 0.0 0.0
0.0 0.0 0.0
0.0 0.0 0.0
0.0 0.0 0.0
0.0 0.0 0.0
0.0 0.0 0.0
0.0 0.0 0.0
0.0 0.0 0.0
0.0 0.0 0.0
0.0 0.0 0.0
0.0 0.0 0.0
0.0 0.0 0.0
0.0 0.0 0.0
0.0 0.0 0.0
0.0 0.0 0.0
0.0 0.0 0.0
0.0 0.0 0.0
0.0 0.0 0.0
0.0 0.0 0.0
0.0 0.0 0.0
0.0 0.0 0.0
0.0 0.0 0.0
0.0 0.0 0.0
0.0 0.0 0.0
0.0 0.0 0.0
0.0 0.0 0.0
0.0 0.0 0.0
0.0 0.0 0.0
0.0 0.0 0.0
0.0 0.0 0.0
0.0 0.0 0.0
0.0 0.0 0.0
0.0 0.0 0.0
0.0 0.0 0.0
0.0 0.0 0.0
0.0 0.0 0.0
0.0 0.0 0.0
0.0 0.0 0.0
0.0 0.0 0.0
0.0 0.0 0.0
0.0 0.0 0.0
0.0 0.0 0.0
0.0 0.0 0.0
0.0 0.0 0.0
0.0 0.0 0.0
0.0 0.0 0.0
0.0 0.0 0.0
0.0 0.0 0.0
0.0 0.0 0.0
0.0 0.0 0.0
0.0 0.0 0.0
0.0 0.0 0.0
0.0 0.0 0.0
0.0 0.0 0.0
0.0 0.0 0.0
0.0 0.0 0.0
0.0 0.0 0.0
0.0 0.0 0.0
0.0 0.0 0.0
0.0 0.0 0.0
0.0 0.0 0.0
0.0 0.0 0.0
0.0 0.0 0.0
0.0 0.0 0.0
0.0 0.0 0.0
0.0 0.0 0.0
0.0 0.0 0.0
0.0 0.0 0.0
0.0 0.0 0.0
0.0 0.0 0.0
0.0 0.0 0.0
0.0 0.0 0.0
0.0 0.0 0.0
0.0 0.0 0.0
0.0 0.0 0.0
0.0 0.0 0.0
0.0 0.0 0.0
0.0 0.0 0.0
0.0 0.0 0.0
0.0 0.0 0.0
0.0 0.0 0.0
0.0 0.0 0.0
0.0 0.0 0.0
0.0 0.0 0.0
0.0 0.0 0.0
0.0 0.0 0.0
0.0 0.0 0.0
0.0 0.0 0.0
0.0 0.0 0.0
0.0 0.0 0.0
0.0 0.0 0.0
0.0 0.0 0.0
0.0 0.0 0.0
0.0 0.0 0.0
0.0 0.0 0.0
0.0 0.0 0.0
0.0 0.0 0.0
0.0 0.0 0.0
0.0 0.0 0.0
0.0 0.0 0.0
0.0 0.0 0.0
0.0 0.0 0.0
0.0 0.0 0.0
0.0 0.0 0.0
0.0 0.0 0.0
0.0 0.0 0.0
0.0 0.0 0.0
0.0 0.0 0.0
0.0 0.0 0.0
0.0 0.0 0.0
0.0 0.0 0.0
0.0 0.0 0.0
0.0 0.0 0.0
0.0 0.0 0.0
0.0 0.0 0.0
0.0 0.0 0.0
0.0 0.0 0.0
0.0 0.0 0.0
0.0 0.0 0.0
0.0 0.0 0.0
0.208531385383 4.84386599769e-05 0.0
0.398553490167 0.000170319782334 0.0
0.572325554489 -0.000134253407244 0.0
0.726271849034 0.000619146565822 0.0
0.864202224413 -0.000461319712725 0.0
0.994576890271 -0.00224895613478 0.0
1.09073490253 -0.000233862626624 0.0
1.1775792865 0.00050473480914 0.0
1.2460969689 -0.000176472770317 0.0
1.29737541774 8.94499099696e-05 0.0
1.32994359163 -7.35675582943e-05 0.0
1.34490962325 0.000106034888131 0.0
1.34248159443 1.26238004743e-05 0.0
1.320237459 -9.39971076023e-05 0.0
1.28151635403 -2.11659687099e-05 0.0
1.22507971403 -2.83180206693e-05 0.0
0.104776290007 -1.00524313464e-05 0.0
0.30364788261 -2.44817267683e-05 0.0
0.484124583515 -7.78493416813e-05 0.0
0.649133705507 -4.61441910973e-05 0.0
0.795624372395 0.000227319847803 0.0
0.927154675483 -0.000890812394232 0.0
1.03961135724 -0.000351633976218 0.0
1.1339175614 5.73682422797e-05 0.0
1.21175471138 0.000151492802619 0.0
1.27293979529 3.05054724954e-05 0.0
1.31458166357 4.02673615688e-05 0.0
1.33919266356 1.5485362831e-05 0.0
1.34511805691 -4.11103895722e-05 0.0
1.333150696 5.85945686636e-05 0.0
1.30307186705 -7.05284964665e-05 0.0
1.25549091193 5.23278346218e-05 0.0
1.19049553274 -9.62367830561e-05 0.0
1.15101069085 0.0 0.0
1.1520723011 0.0 0.0
1.15189375011 0.0 0.0
1.15089926965 0.0 0.0
1.14939858987 0.0 0.0
1.14706116663 0.0 0.0
1.14832146082 0.0 0.0
1.14650871005 0.0 0.0
1.1526485737 0.0 0.0
1.1521613421 0.0 0.0
1.15156824784 0.0 0.0
1.1551080909 0.0 0.0
1.15459206036 0.0 0.0
1.15292965207 0.0 0.0
1.1529931014 0.0 0.0
1.15309039103 0.0 0.0
1.15111677159 0.0 0.0
1.15125547148 0.0 0.0
1.15048742852 0.0 0.0
1.15013579464 0.0 0.0
1.15049045246 0.0 0.0
1.14986140917 0.0 0.0
1.1472690136 0.0 0.0
1.14755774959 0.0 0.0
1.14774090017 0.0 0.0
1.14798583779 0.0 0.0
1.14947819944 0.0 0.0
1.15072421155 0.0 0.0
1.14899406389 0.0 0.0
1.14860431566 0.0 0.0
1.14835813469 0.0 0.0
1.1470314466 0.0 0.0
1.14507804231 0.0 0.0
1.14793917788 0.0 0.0
1.14648825203 0.0 0.0
1.15170556843 0.0 0.0
1.15158168435 0.0 0.0
1.15031323378 0.0 0.0
1.150384386 0.0 0.0
1.15072230954 0.0 0.0
1.14876339661 0.0 0.0
1.1462212607 0.0 0.0
1.14976005763 0.0 0.0
1.14823660456 0.0 0.0
1.153412143 0.0 0.0
1.15287103721 0.0 0.0
1.15064391087 0.0 0.0
1.15025575019 0.0 0.0
1.15024630327 0.0 0.0
1.14800680757 0.0 0.0
1.14522076729 0.0 0.0
1.14819825281 0.0 0.0
1.14644260627 0.0 0.0
1.15086648691 0.0 0.0
1.15020009735 0.0 0.0
1.14827179019 0.0 0.0
1.14768862349 0.0 0.0
1.14740761424 0.0 0.0
1.14491651912 0.0 0.0
1.14202226274 0.0 0.0
1.14485123299 0.0 0.0
1.14313035016 0.0 0.0
1.1478243114 0.0 0.0
1.14740381734 0.0 0.0
1.14572316049 0.0 0.0
1.14551209225 0.0 0.0
1.14671295552 0.0 0.0
1.14484622396 0.0 0.0
1.14494292719 0.0 0.0
1.14535281201 0.0 0.0
1.14477309635 0.0 0.0
1.14106139721 0.0 0.0
1.13910285547 0.0 0.0
1.1421947504 0.0 0.0
1.14009729519 0.0 0.0
1.14080035379 0.0 0.0
1.14197811004 0.0 0.0
1.14404595982 0.0 0.0
1.14568552098 0.0 0.0
1.14357727583 0.0 0.0
1.14344371859 0.0 0.0
1.14670370417 0.0 0.0
1.14838249608 0.0 0.0
1.14756775875 0.0 0.0
1.1461461411 0.0 0.0
1.15093958001 0.0 0.0
1.15312513627 0.0 0.0
1.14988818831 0.0 0.0
1.14733973875 0.0 0.0
1.1475912985 0.0 0.0
1.14847426054 0.0 0.0
1.14821783846 0.0 0.0
1.146994748 0.0 0.0
1.14833582333 0.0 0.0
1.14901456751 0.0 0.0
1.14580337904 0.0 0.0
1.15106981747 0.0 0.0
1.1491816019 0.0 0.0
1.15823637583 0.0 0.0
1.15971654836 0.0 0.0
1.15802038519 0.0 0.0
1.16005693469 0.0 0.0
1.16214325044 0.0 0.0
1.16024001843 0.0 0.0
1.15519906507 0.0 0.0
1.16632644409 0.0 0.0
1.16614903273 0.0 0.0
1.18291874023 0.0 0.0
1.1874813688 0.0 0.0
1.18708730786 0.0 0.0
1.19239128738 0.0 0.0
1.19799950764 0.0 0.0
1.1975965765 0.0 0.0
1.19179451343 0.0 0.0
1.21464232322 0.0 0.0
1.21796679553 0.0 0.0
1.24801517954 0.0 0.0
1.25812039344 0.0 0.0
1.26073803548 0.0 0.0
1.27168209958 0.0 0.0
1.28313970898 0.0 0.0
1.28464299013 0.0 0.0
1.2776939171 0.0 0.0
1.31114206123 0.0 0.0
1.318522622 0.0 0.0
1.35377661121 0.0 0.0
1.36616564919 0.0 0.0
1.37067659307 0.0 0.0
1.3813205003 0.0 0.0
1.39099355057 0.0 0.0
1.39651509516 0.0 0.0
1.39227152722 0.0 0.0
1.41873780481 0.0 0.0
1.42524987704 0.0 0.0
1.44536115058 0.0 0.0
1.45281965038 0.0 0.0
1.45738624198 0.0 0.0
1.4639207154 0.0 0.0
1.46992212899 0.0 0.0
1.47032821774 0.0 0.0
1.47468532618 0.0 0.0
1.48040871071 0.0 0.0
1.4879264467 0.0 0.0
1.49271204677 0.0 0.0
1.4996716306 0.0 0.0
1.50179155949 0.0 0.0
1.50392270357 0.0 0.0
1.50649158297 0.0 0.0
1.51006329185 0.0 0.0
1.51109832724 0.0 0.0
1.51320106835 0.0 0.0
1.51347379923 0.0 0.0
1.51443628637 0.0 0.0
1.51513865519 0.0 0.0
1.51500691546 0.0 0.0
1.51371750109 0.0 0.0
1.51436141976 0.0 0.0
1.51407754178 0.0 0.0
1.51245949349 0.0 0.0
1.51269623315 0.0 0.0
1.51164603157 0.0 0.0
1.51075630932 0.0 0.0
1.50935072563 0.0 0.0
1.50770474211 0.0 0.0
1.50593657227 0.0 0.0
1.50388147177 0.0 0.0
1.15276751002 0.0 0.0
1.15275664312 0.0 0.0
1.15395795968 0.0 0.0
1.15245192995 0.0 0.0
1.15186362595 0.0 0.0
1.14963512971 0.0 0.0
1.14829626818 0.0 0.0
1.14912236068 0.0 0.0
1.14827181509 0.0 0.0
1.15448066627 0.0 0.0
1.1528127157 0.0 0.0
1.15406736918 0.0 0.0
1.15603707139 0.0 0.0
1.15558456289 0.0 0.0
1.15343687753 0.0 0.0
1.15503303714 0.0 0.0
1.15357319463 0.0 0.0
1.15198124705 0.0 0.0
1.15130538589 0.0 0.0
1.1523716009 0.0 0.0
1.15106535955 0.0 0.0
1.15211186249 0.0 0.0
1.14990837639 0.0 0.0
1.14817066165 0.0 0.0
1.14855854138 0.0 0.0
1.15011583281 0.0 0.0
1.14950442608 0.0 0.0
1.1519178901 0.0 0.0
1.15147861416 0.0 0.0
1.14944142922 0.0 0.0
1.15043452762 0.0 0.0
1.14894542179 0.0 0.0
1.14653046407 0.0 0.0
1.14751980353 0.0 0.0
1.14822715894 0.0 0.0
1.14949263014 0.0 0.0
1.15276108273 0.0 0.0
1.15286137333 0.0 0.0
1.150975562 0.0 0.0
1.15247729447 0.0 0.0
1.15133902628 0.0 0.0
1.14763009651 0.0 0.0
1.14903615437 0.0 0.0
1.15025687824 0.0 0.0
1.15154051629 0.0 0.0
1.15459411779 0.0 0.0
1.15337930995 0.0 0.0
1.15104870188 0.0 0.0
1.15215597081 0.0 0.0
1.15069864483 0.0 0.0
1.14677107143 0.0 0.0
1.14771385065 0.0 0.0
1.14854426556 0.0 0.0
1.14945906851 0.0 0.0
1.15191115971 0.0 0.0
1.15096176729 0.0 0.0
1.14866114909 0.0 0.0
1.14943337644 0.0 0.0
1.1477674428 0.0 0.0
1.14362547716 0.0 0.0
1.14444605399 0.0 0.0
1.14525600917 0.0 0.0
1.14634506144 0.0 0.0
1.149131048 0.0 0.0
1.14852332372 0.0 0.0
1.14650298828 0.0 0.0
1.14807289469 0.0 0.0
1.14800699603 0.0 0.0
1.14541441066 0.0 0.0
1.14630583974 0.0 0.0
1.147040115 0.0 0.0
1.14431931586 0.0 0.0
1.14090444114 0.0 0.0
1.1415045636 0.0 0.0
1.14282351476 0.0 0.0
1.14079186571 0.0 0.0
1.14421180356 0.0 0.0
1.14400486915 0.0 0.0
1.14720741825 0.0 0.0
1.14509369726 0.0 0.0
1.14599387169 0.0 0.0
1.14620206689 0.0 0.0
1.15046963129 0.0 0.0
1.14966136146 0.0 0.0
1.14747398741 0.0 0.0
1.15005660549 0.0 0.0
1.15473571128 0.0 0.0
1.15372045558 0.0 0.0
1.14992547506 0.0 0.0
1.14794125716 0.0 0.0
1.15142088948 0.0 0.0
1.15018249195 0.0 0.0
1.15097772457 0.0 0.0
1.14856561526 0.0 0.0
1.15066329662 0.0 0.0
1.14836519008 0.0 0.0
1.15113761019 0.0 0.0
1.1511616978 0.0 0.0
1.15505801932 0.0 0.0
1.16219148354 0.0 0.0
1.16226281309 0.0 0.0
1.16053214172 0.0 0.0
1.16538677389 0.0 0.0
1.16450068855 0.0 0.0
1.15837377131 0.0 0.0
1.16400265558 0.0 0.0
1.16836284329 0.0 0.0
1.17634477715 0.0 0.0
1.19020729351 0.0 0.0
1.19267277378 0.0 0.0
1.1920779422 0.0 0.0
1.20177314508 0.0 0.0
1.20281133307 0.0 0.0
1.19571383149 0.0 0.0
1.20737990228 0.0 0.0
1.22031300852 0.0 0.0
1.23538490536 0.0 0.0
1.2603936229 0.0 0.0
1.26722453094 0.0 0.0
1.26922920091 0.0 0.0
1.28575817317 0.0 0.0
1.29042229082 0.0 0.0
1.28204615181 0.0 0.0
1.2983737137 0.0 0.0
1.32010923514 0.0 0.0
1.33861680851 0.0 0.0
1.36702451748 0.0 0.0
1.37538170037 0.0 0.0
1.3787775527 0.0 0.0
1.39352942577 0.0 0.0
1.39750762246 0.0 0.0
1.39502289434 0.0 0.0
1.40794877826 0.0 0.0
1.42583709813 0.0 0.0
1.43792074579 0.0 0.0
1.45277133622 0.0 0.0
1.45994580658 0.0 0.0
1.46251916319 0.0 0.0
1.470941861 0.0 0.0
1.47362438397 0.0 0.0
1.47417760569 0.0 0.0
1.48239330338 0.0 0.0
1.48569408134 0.0 0.0
1.49204125931 0.0 0.0
1.49885239149 0.0 0.0
1.50335065907 0.0 0.0
1.50376478959 0.0 0.0
1.5076179958 0.0 0.0
1.50867480081 0.0 0.0
1.51123068524 0.0 0.0
1.51328563639 0.0 0.0
1.51440953768 0.0 0.0
1.51417268188 0.0 0.0
1.51563424796 0.0 0.0
1.51536773689 0.0 0.0
1.51439411129 0.0 0.0
1.51444456481 0.0 0.0
1.51475238857 0.0 0.0
1.51270229579 0.0 0.0
1.51301704089 0.0 0.0
1.51222415551 0.0 0.0
1.51145754869 0.0 0.0
1.51025469275 0.0 0.0
1.50861244049 0.0 0.0
1.50696091778 0.0 0.0
1.50499495616 0.0 0.0
1.50323935046 0.0 0.0
1.49480961901 0.0 0.0
1.47923899729 0.0 0.0
1.45328709143 0.0 0.0
1.4169549432 0.0 0.0
1.37024203203 0.0 0.0
1.31314887868 0.0 0.0
1.24567496241 0.0 0.0
1.16782028321 0.0 0.0
1.07958485454 0.0 0.0
0.980968837192 0.0 0.0
0.87197232329 0.0 0.0
0.752595156607 0.0 0.0
0.622837389202 0.0 0.0
0.482698969036 0.0 0.0
0.332179948162 0.0 0.0
0.171280274486 0.0 0.0
1.49870266516 0.0 0.0
1.48832190332 0.0 0.0
1.46756037942 0.0 0.0
1.43641861268 0.0 0.0
1.39489608297 0.0 0.0
1.34299331112 0.0 0.0
1.28070925554 0.0 0.0
1.20804495778 0.0 0.0
1.12499989709 0.0 0.0
1.03157462274 0.0 0.0
0.927768174863 0.0 0.0
0.813581334556 0.0 0.0
0.689013841485 0.0 0.0
0.55406574771 0.0 0.0
0.408737001133 0.0 0.0
0.253027705942 0.0 0.0
0.0869377162365 0.0 0.0
1.20593649948 -0.000420262905788 0.0
1.11544930484 0.00102714144834 0.0
1.20355044758 0.000207635358103 0.0
1.1127641375 0.00155422560758 0.0
1.20691967323 0.00181807601401 0.0
1.11902398939 0.00302665165069 0.0
1.11931612009 0.00745699720357 0.0
1.20158688123 0.00289704820248 0.0
1.1478365859 0.0117971740219 0.0
1.21521169699 0.00198531170033 0.0
1.16213379624 0.0119865792069 0.0
1.21376436194 0.00178406144935 0.0
1.17691498371 0.0094452574532 0.0
1.21158131736 0.00311743520552 0.0
1.1874715324 0.00714431861179 0.0
1.20188840613 0.0047025535617 0.0
1.19109881968 0.00586380004138 0.0
1.16026936614 0.00523154040546 0.0
0.937546741206 -0.000476035438996 0.0
0.823926377888 0.00227481858375 0.0
1.33937415539 3.34749093378e-06 0.0
1.33772714882 0.000935683390042 0.0
0.927051382887 0.000546921698141 0.0
0.815621928277 0.000635898289822 0.0
1.36696441478 0.00790125649057 0.0
0.925013322407 0.0018219940602 0.0
0.821010647639 0.00315005004721 0.0
0.837327161147 0.00611030950232 0.0
0.926254329488 0.00175617959436 0.0
1.35494902168 0.00393111754829 0.0
1.37433970609 0.0108685490671 0.0
0.844261048644 0.00706562264227 0.0
0.914670834497 0.000862969385641 0.0
0.863193878545 0.00564108952304 0.0
0.914609916612 0.0010769331362 0.0
0.877236735964 0.00390745687081 0.0
0.895717614469 0.0020596047708 0.0
0.873995897084 0.00300280313918 0.0
1.35540847698 0.00198020534933 0.0
1.36979538468 0.0146760224741 0.0
1.35255416425 0.00131145342561 0.0
1.36209857171 0.0165411962227 0.0
1.35276863651 0.0131435881366 0.0
1.34930090745 0.00201358267268 0.0
1.34310204644 0.00199680240486 0.0
1.33849889155 0.0069025636452 0.0
1.34501096517 0.0016608709523 0.0
1.34276754938 0.00053248777059 0.0
1.36705456466 0.0056728500715 0.0
1.36908430136 0.0063420379479 0.0
0.839952455117 0.00254793303673 0.0
0.83370144771 0.00261275382928 0.0
0.746207583933 0.00370359415769 0.0
0.857611148826 -0.000254896574714 0.0
1.34458186407 -1.95139449012e-05 0.0
1.35905663812 -1.65064943209e-05 0.0
0.763949530582 -0.000265218824759 0.0
0.657985947799 0.000937136836894 0.0
0.744243905865 0.000902492931678 0.0
0.644482225258 0.00133139792129 0.0
1.40069796134 0.00864073961101 0.0
1.40962705161 0.0126001370815 0.0
1.3650761038 0.00236608318789 0.0
1.39246370422 0.00585531613833 0.0
0.674220472547 0.00310301846686 0.0
0.763724787455 0.00142951234577 0.0
0.68544414667 0.00491645864767 0.0
0.757239120008 0.000955799537938 0.0
0.700650264327 0.00430625412991 0.0
0.754427187422 0.000468108907532 0.0
0.714302944963 0.00294451853135 0.0
0.751704408148 0.00102482514908 0.0
0.724952523167 0.00209390151977 0.0
1.37269960205 0.00343778145528 0.0
1.41308502794 0.0168746937005 0.0
1.35974638336 0.00114739169856 0.0
1.41009909057 0.0166555654841 0.0
1.35598687808 0.00119514981866 0.0
0.729516641133 0.00159008939663 0.0
0.716431484011 0.00175484454166 0.0
1.39874497255 0.0108468181025 0.0
1.35224061008 0.00196718436561 0.0
1.34589688113 -0.000272136289654 0.0
1.39491033763 0.000737837119843 0.0
1.34883353324 0.00116681839715 0.0
1.39460814173 0.00481532591914 0.0
0.773054662609 -0.00063678932039 0.0
0.666426471503 0.00127194328723 0.0
1.3435807927 -1.25199558857e-05 0.0
1.4088213261 -0.000174874898573 0.0
0.677409843958 0.00167605734265 0.0
1.38153452954 0.00515670836798 0.0
1.09696181745 0.00227951526174 0.0
1.19087953595 -7.96435722947e-05 0.0
1.18497977072 0.00527146367276 0.0
1.18306261812 0.005638332113 0.0
1.18666915953 0.00616376719335 0.0
1.18758295754 0.00779540496848 0.0
1.20132194381 0.00410297929158 0.0
1.17115245489 0.0103421527473 0.0
1.21168401547 0.00253854394103 0.0
1.21414269187 0.00123958936062 0.0
1.12698781925 0.00144356112835 0.0
1.21646106715 0.00226450245885 0.0
1.13250390226 0.00471596475651 0.0
1.15555173114 0.0122927442286 0.0
1.21319499165 0.00170428173222 0.0
1.14304527352 0.0106392768494 0.0
1.21517109851 0.00242079045629 0.0
1.1252489037 0.00213367712856 0.0
1.21378875049 2.69362923194e-05 0.0
1.32074558972 -0.000211239473842 0.0
1.45244013046 0.00131958019593 0.0
1.39904763353 0.00795430061676 0.0
1.3412965321 0.000975924421089 0.0
1.41904451456 0.0127029438151 0.0
1.33663749008 0.00040931901637 0.0
1.43610662312 0.0171768444944 0.0
1.3333034132 0.000835400631479 0.0
1.4450626411 0.0158604222645 0.0
1.32818759578 0.00126172624125 0.0
1.4486341692 0.00912492243752 0.0
1.44908503703 0.00338984515697 0.0
1.32528033611 0.000338157914137 0.0
0.592651727838 -0.000278366356303 0.0
0.502595784426 0.0010806302119 0.0
0.552063143591 0.000565639591224 0.0
0.473297600628 0.00113023441942 0.0
0.566489452045 0.00039339499408 0.0
0.481496217898 0.000532119491622 0.0
0.489799746375 0.000502706231755 0.0
0.577707440177 -0.000285973612906 0.0
0.491023137474 0.00249435574241 0.0
0.551478424968 0.00101097022971 0.0
0.513665025513 0.00243197954208 0.0
0.582901009653 0.000364846155728 0.0
0.494834631426 0.00230290611339 0.0
0.538182958944 0.000442064982357 0.0
0.516131311839 0.00304239683352 0.0
0.568083829867 -0.000109113999609 0.0
0.506691960043 0.00155752336427 0.0
0.53720944298 0.000453631349164 0.0
0.499204367538 0.00131978857584 0.0
0.57633354421 0.00126054583437 0.0
0.53191297843 0.00236309984119 0.0
0.569219172106 -0.000124163772899 0.0
0.514828303024 0.00099051352737 0.0
0.541786903241 0.00142616473507 0.0
0.567054130503 0.000444662623393 0.0
0.54926706016 0.00108837770627 0.0
1.3521612006 0.00283655832172 0.0
1.17955129269 -0.000384335757946 0.0
1.0830557271 0.00165187241245 0.0
1.36688281299 0.00370002956737 0.0
1.17948496005 0.00255824222682 0.0
1.09758732453 0.00883708365837 0.0
1.18838310874 0.00165346649642 0.0
1.12212707296 0.0117292019223 0.0
1.17183340557 0.00186547654816 0.0
1.12137906631 0.0103353126031 0.0
1.08986618663 0.00571717720158 0.0
1.1791973646 0.00265885920413 0.0
1.1670577683 0.00345691004338 0.0
1.13606892735 0.00775262632698 0.0
1.14574339765 0.00604365933989 0.0
1.07812526143 0.000759610552307 0.0
1.17452124441 0.000611049492821 0.0
0.514407655776 0.000598708033579 0.0
0.501445417557 0.000759316861983 0.0
1.3185674295 -0.00043166691548 0.0
1.45414024623 0.000156325336602 0.0
0.505671409644 0.00195117135474 0.0
0.59395496513 -4.61735541624e-05 0.0
0.575877264169 -0.000511609452963 0.0
0.487560796638 0.0012209866102 0.0
1.32444053894 0.000752809077156 0.0
1.45119832155 0.00631150916508 0.0
1.32717572446 0.00094589800297 0.0
1.45015632209 0.0124092947401 0.0
1.33070249015 0.000266225958992 0.0
1.44230588262 0.0161538897571 0.0
1.3226107877 -7.93896638454e-05 0.0
1.45131411106 -0.000798690045424 0.0
1.33650330701 0.000502448673283 0.0
1.42612264965 0.0138183896465 0.0
1.34229609809 0.00153443342384 0.0
1.40483328068 0.00883237749007 0.0