# vtk DataFile Version 2.0
2D Simulation Python
ASCII
DATASET UNSTRUCTURED_GRID
FIELD FieldData 1
NODES 1 2 int
14968 7299

POINTS 14968 double
0.0 1.0 0.0
1.725 1.0 0.0
8.275 1.0 0.0
10.0 1.0 0.0
10.0 0.0 0.0
0.0 0.0 0.0
0.05948275862057954 1.0 0.0
0.1189655172411507 1.0 0.0
0.1784482758617532 1.0 0.0
0.2379310344823185 1.0 0.0
0.2974137931028384 1.0 0.0
0.3568965517233564 1.0 0.0
0.4163793103438745 1.0 0.0
0.475862068964385 1.0 0.0
0.535344827584889 1.0 0.0
0.5948275862053855 1.0 0.0
0.654310344825882 1.0 0.0
0.7137931034463786 1.0 0.0
0.7732758620668752 1.0 0.0
0.8327586206874149 1.0 0.0
0.8922413793081027 1.0 0.0
0.9517241379289384 1.0 0.0
1.011206896549752 1.0 0.0
1.070689655170612 1.0 0.0
1.130172413791474 1.0 0.0
1.189655172412335 1.0 0.0
1.249137931033183 1.0 0.0
1.308620689654105 1.0 0.0
1.368103448274985 1.0 0.0
1.427586206895818 1.0 0.0
1.487068965516628 1.0 0.0
1.546551724137449 1.0 0.0
1.606034482758285 1.0 0.0
1.665517241379139 1.0 0.0
0.02974137931029072 1.0 0.0
0.08922413793086324 1.0 0.0
0.1487068965514534 1.0 0.0
0.208189655172049 1.0 0.0
0.2676724137925698 1.0 0.0
0.3271551724130939 1.0 0.0
0.3866379310336222 1.0 0.0
0.4461206896541293 1.0 0.0
0.5056034482746439 1.0 0.0
0.5650862068951479 1.0 0.0
0.624568965515645 1.0 0.0
0.6840517241361357 1.0 0.0
0.7435344827566197 1.0 0.0
0.8030172413771515 1.0 0.0
0.8624999999976763 1.0 0.0
0.9219827586185091 1.0 0.0
0.9814655172393557 1.0 0.0
1.040948275860181 1.0 0.0
1.100431034481038 1.0 0.0
1.159913793101895 1.0 0.0
1.219396551722753 1.0 0.0
1.278879310343654 1.0 0.0
1.338362068964579 1.0 0.0
1.397844827585388 1.0 0.0
1.457327586206215 1.0 0.0
1.516810344826985 1.0 0.0
1.576293103447828 1.0 0.0
1.635775862068708 1.0 0.0
1.695258620689603 1.0 0.0
1.784545454545345 1.0 0.0
1.844090909090676 1.0 0.0
1.903636363635991 1.0 0.0
1.963181818181336 1.0 0.0
2.022727272726716 1.0 0.0
2.082272727272112 1.0 0.0
2.141818181817408 1.0 0.0
2.201363636362702 1.0 0.0
2.260909090908037 1.0 0.0
2.320454545453433 1.0 0.0
2.379999999998759 1.0 0.0
2.439545454544053 1.0 0.0
2.499090909089358 1.0 0.0
2.558636363634754 1.0 0.0
2.618181818180109 1.0 0.0
2.677727272725404 1.0 0.0
2.737272727270631 1.0 0.0
2.796818181815906 1.0 0.0
2.856363636361191 1.0 0.0
2.915909090906408 1.0 0.0
2.975454545451703 1.0 0.0
3.034999999997049 1.0 0.0
3.094545454542377 1.0 0.0
3.154090909087591 1.0 0.0
3.21363636363288 1.0 0.0
3.273181818178196 1.0 0.0
3.332727272723555 1.0 0.0
3.392272727268849 1.0 0.0
3.451818181814208 1.0 0.0
3.511363636359524 1.0 0.0
3.570909090904812 1.0 0.0
3.630454545450026 1.0 0.0
3.689999999995355 1.0 0.0
3.749545454540702 1.0 0.0
3.809090909085996 1.0 0.0
3.868636363631291 1.0 0.0
3.928181818176585 1.0 0.0
3.987727272721861 1.0 0.0
4.047272727267021 1.0 0.0
4.106818181812208 1.0 0.0
4.166363636357625 1.0 0.0
4.225909090903122 1.0 0.0
4.285454545448432 1.0 0.0
4.34499999999356 1.0 0.0
4.404545454538917 1.0 0.0
4.464090909084414 1.0 0.0
4.523636363629791 1.0 0.0
4.583181818174936 1.0 0.0
4.642727272720208 1.0 0.0
4.702272727265705 1.0 0.0
4.761818181811142 1.0 0.0
4.821363636356348 1.0 0.0
4.880909090901557 1.0 0.0
4.940454545446997 1.0 0.0
4.999999999992493 1.0 0.0
5.059545454538018 1.0 0.0
5.119090909083717 1.0 0.0
5.17863636362933 1.0 0.0
5.238181818174827 1.0 0.0
5.297727272720321 1.0 0.0
5.357272727265989 1.0 0.0
5.416818181811662 1.0 0.0
5.476363636357158 1.0 0.0
5.535909090902654 1.0 0.0
5.595454545448262 1.0 0.0
5.65499999999396 1.0 0.0
5.714545454539491 1.0 0.0
5.774090909085032 1.0 0.0
5.83363636363093 1.0 0.0
5.893181818176673 1.0 0.0
5.952727272722171 1.0 0.0
6.012272727267668 1.0 0.0
6.071818181813491 1.0 0.0
6.131363636359353 1.0 0.0
6.190909090904849 1.0 0.0
6.250454545450346 1.0 0.0
6.309999999996052 1.0 0.0
6.369545454541951 1.0 0.0
6.429090909087529 1.0 0.0
6.488636363633026 1.0 0.0
6.548181818178611 1.0 0.0
6.60772727272451 1.0 0.0
6.667272727270209 1.0 0.0
6.726818181815705 1.0 0.0
6.786363636361202 1.0 0.0
6.845909090907071 1.0 0.0
6.905454545452889 1.0 0.0
6.964999999998385 1.0 0.0
7.024545454543881 1.0 0.0
7.084090909089378 1.0 0.0
7.143636363634876 1.0 0.0
7.20318181818037 1.0 0.0
7.262727272725868 1.0 0.0
7.322272727271365 1.0 0.0
7.381818181816859 1.0 0.0
7.441363636362357 1.0 0.0
7.500909090907854 1.0 0.0
7.560454545453348 1.0 0.0
7.619999999998846 1.0 0.0
7.679545454544343 1.0 0.0
7.739090909089839 1.0 0.0
7.798636363635335 1.0 0.0
7.858181818180832 1.0 0.0
7.917727272726328 1.0 0.0
7.977272727271824 1.0 0.0
8.036818181817441 1.0 0.0
8.09636363636334 1.0 0.0
8.155909090909008 1.0 0.0
8.215454545454504 1.0 0.0
1.754772727272673 1.0 0.0
1.814318181818009 1.0 0.0
1.873863636363333 1.0 0.0
1.933409090908672 1.0 0.0
1.992954545454031 1.0 0.0
2.052499999999414 1.0 0.0
2.112045454544734 1.0 0.0
2.171590909090055 1.0 0.0
2.231136363635354 1.0 0.0
2.290681818180733 1.0 0.0
2.35022727272609 1.0 0.0
2.409772727271409 1.0 0.0
2.469318181816729 1.0 0.0
2.528863636362083 1.0 0.0
2.588409090907435 1.0 0.0
2.647954545452764 1.0 0.0
2.70749999999803 1.0 0.0
2.767045454543256 1.0 0.0
2.826590909088563 1.0 0.0
2.886136363633805 1.0 0.0
2.945681818179043 1.0 0.0
3.005227272724398 1.0 0.0
3.064772727269736 1.0 0.0
3.124318181814993 1.0 0.0
3.183863636360237 1.0 0.0
3.243409090905498 1.0 0.0
3.302954545450869 1.0 0.0
3.362499999996201 1.0 0.0
3.422045454541534 1.0 0.0
3.481590909086889 1.0 0.0
3.541136363632178 1.0 0.0
3.600681818177425 1.0 0.0
3.660227272722711 1.0 0.0
3.719772727268038 1.0 0.0
3.779318181813342 1.0 0.0
3.838863636358643 1.0 0.0
3.898409090903943 1.0 0.0
3.957954545449228 1.0 0.0
4.017499999994459 1.0 0.0
4.077045454539567 1.0 0.0
4.136590909084866 1.0 0.0
4.196136363630398 1.0 0.0
4.255681818175789 1.0 0.0
4.31522727272101 1.0 0.0
4.374772727266199 1.0 0.0
4.434318181811665 1.0 0.0
4.493863636357126 1.0 0.0
4.55340909090234 1.0 0.0
4.612954545447561 1.0 0.0
4.672499999992919 1.0 0.0
4.732045454538429 1.0 0.0
4.791590909083769 1.0 0.0
4.851136363628941 1.0 0.0
4.910681818174305 1.0 0.0
4.970227272719745 1.0 0.0
5.029772727265215 1.0 0.0
5.089318181810858 1.0 0.0
5.148863636356518 1.0 0.0
5.208409090902078 1.0 0.0
5.267954545447563 1.0 0.0
5.32749999999314 1.0 0.0
5.387045454538812 1.0 0.0
5.446590909084395 1.0 0.0
5.506136363629908 1.0 0.0
5.565681818175434 1.0 0.0
5.625227272721118 1.0 0.0
5.68477272726672 1.0 0.0
5.744318181812282 1.0 0.0
5.803863636357981 1.0 0.0
5.863409090903753 1.0 0.0
5.922954545449448 1.0 0.0
5.98249999999492 1.0 0.0
6.042045454540572 1.0 0.0
6.10159090908641 1.0 0.0
6.161136363632073 1.0 0.0
6.220681818177569 1.0 0.0
6.280227272723183 1.0 0.0
6.339772727268974 1.0 0.0
6.399318181814714 1.0 0.0
6.45886363636027 1.0 0.0
6.518409090905834 1.0 0.0
6.577954545451583 1.0 0.0
6.637499999997363 1.0 0.0
6.697045454542931 1.0 0.0
6.756590909088454 1.0 0.0
6.8161363636342 1.0 0.0
6.875681818179999 1.0 0.0
6.935227272725616 1.0 0.0
6.994772727271133 1.0 0.0
7.054318181816615 1.0 0.0
7.113863636362105 1.0 0.0
7.173409090907585 1.0 0.0
7.232954545453119 1.0 0.0
7.292499999998594 1.0 0.0
7.352045454544166 1.0 0.0
7.411590909089607 1.0 0.0
7.471136363635079 1.0 0.0
7.530681818180621 1.0 0.0
7.590227272726104 1.0 0.0
7.649772727271595 1.0 0.0
7.709318181817098 1.0 0.0
7.768863636362564 1.0 0.0
7.828409090908048 1.0 0.0
7.88795454545358 1.0 0.0
7.947499999999069 1.0 0.0
8.007045454544631 1.0 0.0
8.066590909090369 1.0 0.0
8.126136363636165 1.0 0.0
8.185681818181749 1.0 0.0
8.245227272727199 1.0 0.0
8.334482758620055 1.0 0.0
8.393965517240051 1.0 0.0
8.453448275859904 1.0 0.0
8.51293103448045 1.0 0.0
8.572413793100301 1.0 0.0
8.631896551720153 1.0 0.0
8.6913793103407 1.0 0.0
8.750862068961245 1.0 0.0
8.810344827581792 1.0 0.0
8.869827586202339 1.0 0.0
8.929310344822884 1.0 0.0
8.988793103443431 1.0 0.0
9.048275862063978 1.0 0.0
9.107758620684523 1.0 0.0
9.16724137930507 1.0 0.0
9.226724137925617 1.0 0.0
9.286206896546162 1.0 0.0
9.345689655167401 1.0 0.0
9.405172413788595 1.0 0.0
9.46465517240963 1.0 0.0
9.524137931030667 1.0 0.0
9.583620689651704 1.0 0.0
9.643103448272907 1.0 0.0
9.702586206894148 1.0 0.0
9.762068965515388 1.0 0.0
9.821551724136627 1.0 0.0
9.881034482757867 1.0 0.0
9.940517241378963 1.0 0.0
8.304741379310085 1.0 0.0
8.364224137930028 1.0 0.0
8.423706896549978 1.0 0.0
8.48318965517026 1.0 0.0
8.542672413790376 1.0 0.0
8.602155172410113 1.0 0.0
8.661637931030402 1.0 0.0
8.721120689651029 1.0 0.0
8.78060344827138 1.0 0.0
8.84008620689213 1.0 0.0
8.899568965512502 1.0 0.0
8.959051724133055 1.0 0.0
9.018534482753648 1.0 0.0
9.078017241374363 1.0 0.0
9.137499999994688 1.0 0.0
9.196982758615343 1.0 0.0
9.256465517235805 1.0 0.0
9.315948275856895 1.0 0.0
9.375431034477998 1.0 0.0
9.434913793099138 1.0 0.0
9.494396551720149 1.0 0.0
9.55387931034146 1.0 0.0
9.613362068962203 1.0 0.0
9.672844827583809 1.0 0.0
9.73232758620488 1.0 0.0
9.791810344826095 1.0 0.0
9.851293103447228 1.0 0.0
9.910775862068462 1.0 0.0
9.970258620689481 1.0 0.0
10.0 0.9411764705879904 0.0
10.0 0.882352941175982 0.0
10.0 0.8235294117645425 0.0
10.0 0.764705882353186 0.0
10.0 0.7058823529418295 0.0
10.0 0.6470588235304731 0.0
10.0 0.5882352941191167 0.0
10.0 0.5294117647077601 0.0
10.0 0.4705882352960771 0.0
10.0 0.4117647058840672 0.0
10.0 0.3529411764720576 0.0
10.0 0.2941176470600479 0.0
10.0 0.2352941176480381 0.0
10.0 0.1764705882360285 0.0
10.0 0.1176470588240187 0.0
10.0 0.05882352941200908 0.0
10.0 0.9705882352939621 0.0
10.0 0.9117647058820033 0.0
10.0 0.8529411764702793 0.0
10.0 0.7941176470588772 0.0
10.0 0.7352941176474532 0.0
10.0 0.6764705882361493 0.0
10.0 0.6176470588248275 0.0
10.0 0.5588235294134586 0.0
10.0 0.5000000000020175 0.0
10.0 0.4411764705900721 0.0
10.0 0.3823529411780624 0.0
10.0 0.3235294117660528 0.0
10.0 0.264705882354043 0.0
10.0 0.2058823529420333 0.0
10.0 0.1470588235300236 0.0
10.0 0.0882352941180139 0.0
10.0 0.02941176470600448 0.0
9.940119760479043 0.0 0.0
9.880239520958083 0.0 0.0
9.820359281437126 0.0 0.0
9.760479041916167 0.0 0.0
9.70059880239521 0.0 0.0
9.640718562874252 0.0 0.0
9.580838323353293 0.0 0.0
[...]
POINT_DATA 14968
VECTORS vector double
0.0 0.0 0.0
0.0 0.0 0.0
0.0 0.0 0.0
0.0 0.0 0.0
-2.0195742844 0.0 0.0
2.0 0.0 0.0
0.0 0.0 0.0
0.0 0.0 0.0
0.0 0.0 0.0
0.0 0.0 0.0
0.0 0.0 0.0
0.0 0.0 0.0
0.0 0.0 0.0
0.0 0.0 0.0
0.0 0.0 0.0
0.0 0.0 0.0
0.0 0.0 0.0
0.0 0.0 0.0
0.0 0.0 0.0
0.0 0.0 0.0
0.0 0.0 0.0
0.0 0.0 0.0
0.0 0.0 0.0
0.0 0.0 0.0
0.0 0.0 0.0
0.0 0.0 0.0
0.0 0.0 0.0
0.0 0.0 0.0
0.0 0.0 0.0
0.0 0.0 0.0
0.0 0.0 0.0
0.0 0.0 0.0
0.0 0.0 0.0
0.0 0.0 0.0
0.0 0.0 0.0
0.0 0.0 0.0
0.0 0.0 0.0
0.0 0.0 0.0
0.0 0.0 0.0
0.0 0.0 0.0
0.0 0.0 0.0
0.0 0.0 0.0
0.0 0.0 0.0
0.0 0.0 0.0
0.0 0.0 0.0
0.0 0.0 0.0
0.0 0.0 0.0
0.0 0.0 0.0
0.0 0.0 0.0
0.0 0.0 0.0
0.0 0.0 0.0
0.0 0.0 0.0
0.0 0.0 0.0
0.0 0.0 0.0
0.0 0.0 0.0
0.0 0.0 0.0
0.0 0.0 0.0
0.0 0.0 0.0
0.0 0.0 0.0
0.0 0.0 0.0
0.0 0.0 0.0
0.0 0.0 0.0
0.0 0.0 0.0
0.0 0.0 0.0
0.0 0.0 0.0
0.0 0.0 0.0
0.0 0.0 0.0
0.0 0.0 0.0
0.0 0.0 0.0
0.0 0.0 0.0
0.0 0.0 0.0
0.0 0.0 0.0
0.0 0.0 0.0
0.0 0.0 0.0
0.0 0.0 0.0
0.0 0.0 0.0
0.0 0.0 0.0
0.0 0.0 0.0
0.0 0.0 0.0
0.0 0.0 0.0
0.0 0.0 0.0
0.0 0.0 0.0
0.0 0.0 0.0
0.0 0.0 0.0
0.0 0.0 0.0
0.0 0.0 0.0
0.0 0.0 0.0
0.0 0.0 0.0
0.0 0.0 0.0
0.0 0.0 0.0
0.0 0.0 0.0
0.0 0.0 0.0
0.0 0.0 0.0
0.0 0.0 0.0
0.0 0.0 0.0
0.0 0.0 0.0
0.0 0.0 0.0
0.0 0.0 0.0
0.0 0.0 0.0
0.0 0.0 0.0
0.0 0.0 0.0
0.0 0.0 0.0
0.0 0.0 0.0
0.0 0.0 0.0
0.0 0.0 0.0
0.0 0.0 0.0
0.0 0.0 0.0
0.0 0.0 0.0
0.0 0.0 0.0
0.0 0.0 0.0
0.0 0.0 0.0
0.0 0.0 0.0
0.0 0.0 0.0
0.0 0.0 0.0
0.0 0.0 0.0
0.0 0.0 0.0
0.0 0.0 0.0
0.0 0.0 0.0
0.0 0.0 0.0
0.0 0.0 0.0
0.0 0.0 0.0
0.0 0.0 0.0
0.0 0.0 0.0
0.0 0.0 0.0
0.0 0.0 0.0
0.0 0.0 0.0
0.0 0.0 0.0
0.0 0.0 0.0
0.0 0.0 0.0
0.0 0.0 0.0
0.0 0.0 0.0
0.0 0.0 0.0
0.0 0.0 0.0
0.0 0.0 0.0
0.0 0.0 0.0
0.0 0.0 0.0
0.0 0.0 0.0
0.0 0.0 0.0
0.0 0.0 0.0
0.0 0.0 0.0
0.0 0.0 0.0
0.0 0.0 0.0
0.0 0.0 0.0
0.0 0.0 0.0
0.0 0.0 0.0
0.0 0.0 0.0
0.0 0.0 0.0
0.0 0.0 0.0
0.0 0.0 0.0
0.0 0.0 0.0
0.0 0.0 0.0
0.0 0.0 0.0
0.0 0.0 0.0
0.0 0.0 0.0
0.0 0.0 0.0
0.0 0.0 0.0
0.0 0.0 0.0
0.0 0.0 0.0
0.0 0.0 0.0
0.0 0.0 0.0
0.0 0.0 0.0
0.0 0.0 0.0
0.0 0.0 0.0
0.0 0.0 0.0
0.0 0.0 0.0
0.0 0.0 0.0
0.0 0.0 0.0
0.0 0.0 0.0
0.0 0.0 0.0
0.0 0.0 0.0
0.0 0.0 0.0
0.0 0.0 0.0
0.0 0.0 0.0
0.0 0.0 0.0
0.0 0.0 0.0
0.0 0.0 0.0
0.0 0.0 0.0
0.0 0.0 0.0
0.0 0.0 0.0
0.0 0.0 0.0
0.0 0.0 0.0
0.0 0.0 0.0
0.0 0.0 0.0
0.0 0.0 0.0
0.0 0.0 0.0
0.0 0.0 0.0
0.0 0.0 0.0
0.0 0.0 0.0
0.0 0.0 0.0
0.0 0.0 0.0
0.0 0.0 0.0
0.0 0.0 0.0
0.0 0.0 0.0
0.0 0.0 0.0
0.0 0.0 0.0
0.0 0.0 0.0
0.0 0.0 0.0
0.0 0.0 0.0
0.0 0.0 0.0
0.0 0.0 0.0
0.0 0.0 0.0
0.0 0.0 0.0
0.0 0.0 0.0
0.0 0.0 0.0
0.0 0.0 0.0
0.0 0.0 0.0
0.0 0.0 0.0
0.0 0.0 0.0
0.0 0.0 0.0
0.0 0.0 0.0
0.0 0.0 0.0
0.0 0.0 0.0
0.0 0.0 0.0
0.0 0.0 0.0
0.0 0.0 0.0
0.0 0.0 0.0
0.0 0.0 0.0
0.0 0.0 0.0
0.0 0.0 0.0
0.0 0.0 0.0
0.0 0.0 0.0
0.0 0.0 0.0
0.0 0.0 0.0
0.0 0.0 0.0
0.0 0.0 0.0
0.0 0.0 0.0
0.0 0.0 0.0
0.0 0.0 0.0
0.0 0.0 0.0
0.0 0.0 0.0
0.0 0.0 0.0
0.0 0.0 0.0
0.0 0.0 0.0
0.0 0.0 0.0
0.0 0.0 0.0
0.0 0.0 0.0
0.0 0.0 0.0
0.0 0.0 0.0
0.0 0.0 0.0
0.0 0.0 0.0
0.0 0.0 0.0
0.0 0.0 0.0
0.0 0.0 0.0
0.0 0.0 0.0
0.0 0.0 0.0
0.0 0.0 0.0
0.0 0.0 0.0
0.0 0.0 0.0
0.0 0.0 0.0
0.0 0.0 0.0
0.0 0.0 0.0
0.0 0.0 0.0
0.0 0.0 0.0
0.0 0.0 0.0
0.0 0.0 0.0
0.0 0.0 0.0
0.0 0.0 0.0
0.0 0.0 0.0
0.0 0.0 0.0
0.0 0.0 0.0
0.0 0.0 0.0
0.0 0.0 0.0
0.0 0.0 0.0
0.0 0.0 0.0
0.0 0.0 0.0
0.0 0.0 0.0
0.0 0.0 0.0
0.0 0.0 0.0
0.0 0.0 0.0
0.0 0.0 0.0
0.0 0.0 0.0
0.0 0.0 0.0
0.0 0.0 0.0
0.0 0.0 0.0
0.0 0.0 0.0
0.0 0.0 0.0
0.0 0.0 0.0
0.0 0.0 0.0
0.0 0.0 0.0
0.0 0.0 0.0
0.0 0.0 0.0
0.0 0.0 0.0
0.0 0.0 0.0
0.0 0.0 0.0
0.0 0.0 0.0
0.0 0.0 0.0
0.0 0.0 0.0
0.0 0.0 0.0
0.0 0.0 0.0
0.0 0.0 0.0
0.0 0.0 0.0
0.0 0.0 0.0
0.0 0.0 0.0
0.0 0.0 0.0
0.0 0.0 0.0
0.0 0.0 0.0
0.0 0.0 0.0
0.0 0.0 0.0
0.0 0.0 0.0
0.0 0.0 0.0
0.0 0.0 0.0
0.0 0.0 0.0
0.0 0.0 0.0
0.0 0.0 0.0
0.0 0.0 0.0
0.0 0.0 0.0
0.0 0.0 0.0
0.0 0.0 0.0
0.0 0.0 0.0
0.0 0.0 0.0
0.0 0.0 0.0
0.0 0.0 0.0
0.0 0.0 0.0
0.0 0.0 0.0
0.0 0.0 0.0
0.0 0.0 0.0
0.0 0.0 0.0
0.0 0.0 0.0
0.0 0.0 0.0
0.0 0.0 0.0
0.0 0.0 0.0
0.0 0.0 0.0
0.0 0.0 0.0
0.0 0.0 0.0
0.0 0.0 0.0
0.0 0.0 0.0
0.0 0.0 0.0
0.0 0.0 0.0
0.0 0.0 0.0
0.0 0.0 0.0
0.0 0.0 0.0
0.0 0.0 0.0
0.0 0.0 0.0
0.0 0.0 0.0
0.0 0.0 0.0
0.0 0.0 0.0
0.0 0.0 0.0
0.0 0.0 0.0
0.0 0.0 0.0
0.385537384231 -0.0042158972132 0.0
0.702036723804 -0.00704054772002 0.0
0.91858771318 -0.00844677603225 0.0
1.1018927719 -0.0141319224411 0.0
1.25638704493 -0.0173664668652 0.0
1.26497153441 -0.00768949919729 0.0
1.26419395795 -0.023257379364 0.0
1.31114076495 -0.0236475494203 0.0
1.28966988934 -0.0325534775901 0.0
1.3276090506 -0.0340628780239 0.0
1.26084190038 -0.0381537762312 0.0
1.31059349921 -0.0529503374969 0.0
1.20533905749 -0.0424763345367 0.0
1.10798448432 -0.0594353375292 0.0
1.08001705024 -0.0885917270585 0.0
1.05249301209 -0.182156986349 0.0
0.18758838352 0.00202767357717 0.0
0.52752511014 0.00371704743763 0.0
0.802592134208 0.002449840771 0.0
1.00993879772 0.00385632611736 0.0
1.15305001715 0.00621249165001 0.0
1.24571484677 0.00231580664387 0.0
1.27153434022 -0.000633367729739 0.0
1.30673381371 0.0139513851159 0.0
1.32550648408 0.0107707257897 0.0
1.31908277589 0.0207796217992 0.0
1.31763212904 0.0143610339672 0.0
1.3246761273 0.0259812294306 0.0
1.29235059052 0.0160977584077 0.0
1.34716674297 0.0232896672791 0.0
1.29277227814 0.0179593161611 0.0
1.34489818774 0.0623875911877 0.0
1.2133782695 0.0717091377602 0.0
-2.54493916225 0.0 0.0
-2.44820953707 0.0 0.0
-2.33621012183 0.0 0.0
-2.33488944258 0.0 0.0
-2.30164781013 0.0 0.0
-2.41800308921 0.0 0.0
-1.95861102518 0.0 0.0
-2.53446045358 0.0 0.0
-2.00399780318 0.0 0.0
-2.3769921961 0.0 0.0
-2.58072660857 0.0 0.0
-1.97099149946 0.0 0.0
-2.43251427918 0.0 0.0
-2.41611130826 0.0 0.0
-2.40459343993 0.0 0.0
-2.400822359 0.0 0.0
-2.45201088202 0.0 0.0
-1.99578448172 0.0 0.0
-2.30044754784 0.0 0.0
-2.39913876851 0.0 0.0
-2.20188567595 0.0 0.0
-2.11700747804 0.0 0.0
-2.46609594005 0.0 0.0
-2.02334971713 0.0 0.0
-2.290200036 0.0 0.0
-2.37648773063 0.0 0.0
-2.4810920085 0.0 0.0
-2.19140780837 0.0 0.0
-2.43979589909 0.0 0.0
-2.40354379402 0.0 0.0
-2.44491128724 0.0 0.0
-1.94366784873 0.0 0.0
-2.56398054703 0.0 0.0
-2.07306131183 0.0 0.0
-3.61906840631 0.0 0.0
-2.0540813786 0.0 0.0
-2.42346625108 0.0 0.0
-2.37098421837 0.0 0.0
-2.34201343026 0.0 0.0
-2.41377298242 0.0 0.0
-1.92235365308 0.0 0.0
-2.57603239215 0.0 0.0
-2.05585999333 0.0 0.0
-3.56739028851 0.0 0.0
-2.1643361506 0.0 0.0
-2.3067472702 0.0 0.0
-2.33008267092 0.0 0.0
-2.33240507948 0.0 0.0
-2.40816795263 0.0 0.0
-1.87894743771 0.0 0.0
-2.59138528731 0.0 0.0
-2.03081514983 0.0 0.0
-3.50315281342 0.0 0.0
-2.13920175776 0.0 0.0
-2.24700468601 0.0 0.0
-2.38704047506 0.0 0.0
-2.35187417127 0.0 0.0
-2.41589949317 0.0 0.0
-1.8748093821 0.0 0.0
-2.59576135247 0.0 0.0
-2.0208867981 0.0 0.0
-3.4893560715 0.0 0.0
-2.15710929374 0.0 0.0
-2.23129476492 0.0 0.0
-2.34871093567 0.0 0.0
-2.46563395177 0.0 0.0
-2.31385231622 0.0 0.0
-2.25674425704 0.0 0.0
-2.15396434408 0.0 0.0
-2.22285275694 0.0 0.0
-2.20997867365 0.0 0.0
-2.31295292751 0.0 0.0
-2.6000279149 0.0 0.0
-1.95214476021 0.0 0.0
-2.50137325862 0.0 0.0
-2.32527670832 0.0 0.0
-2.42657529648 0.0 0.0
-2.36209521628 0.0 0.0
-1.90476553456 0.0 0.0
-2.47714162927 0.0 0.0
-2.47748080404 0.0 0.0
-2.43136818278 0.0 0.0
-2.45461004902 0.0 0.0
-1.93063418233 0.0 0.0
-2.63274464579 0.0 0.0
-2.32257119555 0.0 0.0
-2.21865589755 0.0 0.0
-2.23935902629 0.0 0.0
-2.14434315466 0.0 0.0
-2.311635588 0.0 0.0
-2.48334601806 0.0 0.0
-2.4888617521 0.0 0.0
-2.29596355909 0.0 0.0
-2.11100108605 0.0 0.0
-2.02490932617 0.0 0.0
-3.60255712942 0.0 0.0
-2.0488675371 0.0 0.0
-2.54177521211 0.0 0.0
-1.88973701278 0.0 0.0
-2.42609042051 0.0 0.0
-2.38352994949 0.0 0.0
-2.38478876778 0.0 0.0
-2.28376804473 0.0 0.0
-2.15496050055 0.0 0.0
-3.49788734968 0.0 0.0
-2.02494892676 0.0 0.0
-2.59837129676 0.0 0.0
-1.88112848331 0.0 0.0
-2.42402418432 0.0 0.0
-2.35987876805 0.0 0.0
-2.39920722178 0.0 0.0
-2.26715250808 0.0 0.0
-2.17422031526 0.0 0.0
-3.52250340986 0.0 0.0
-2.08032782171 0.0 0.0
-2.62916387822 0.0 0.0
-1.98965511657 0.0 0.0
-2.56270943672 0.0 0.0
-2.49391480037 0.0 0.0
-2.59014175415 0.0 0.0
-2.72364598419 0.0 0.0
-2.78297597744 0.0 0.0
-3.8931177168 0.0 0.0
-2.75139033413 0.0 0.0
-3.04731136913 0.0 0.0
-2.79447546132 0.0 0.0
-3.36459145665 0.0 0.0
-3.1884467679 0.0 0.0
-3.32420065613 0.0 0.0
-3.55015429564 0.0 0.0
-3.3258636791 0.0 0.0
-4.60741734233 0.0 0.0
-3.3464670121 0.0 0.0
-3.65642895749 0.0 0.0
-3.22619045054 0.0 0.0
-3.94466874933 0.0 0.0
-3.81605354316 0.0 0.0
-3.97392299535 0.0 0.0
-3.74878387957 0.0 0.0
-4.11635861917 0.0 0.0
-3.98493881007 0.0 0.0
-3.93540856118 0.0 0.0
-3.61679223354 0.0 0.0
-4.41368754977 0.0 0.0
-3.83837147752 0.0 0.0
-4.04023100865 0.0 0.0
-4.49262252035 0.0 0.0
-4.33828584126 0.0 0.0
-3.76534996462 0.0 0.0
-4.8049355698 0.0 0.0
-4.68593662904 0.0 0.0
-4.77771789288 0.0 0.0
-4.87466377206 0.0 0.0
-4.87715812018 0.0 0.0
-3.86862710237 0.0 0.0
-5.54278053127 0.0 0.0
-4.99457922286 0.0 0.0
-4.01019597643 0.0 0.0
-5.77208651248 0.0 0.0
-4.16423282213 0.0 0.0
-5.60566214982 0.0 0.0
-5.22892142992 0.0 0.0
-5.40370101614 0.0 0.0
-5.61451614698 0.0 0.0
-6.01259344951 0.0 0.0
-6.1722332408 0.0 0.0
-1.40416619749 0.0 0.0
-1.21207352408 0.0 0.0
-1.58289269381 0.0 0.0
-1.15883415343 0.0 0.0
-1.52324416056 0.0 0.0
-1.317912302 0.0 0.0
-1.13448820432 0.0 0.0
-1.40471377809 0.0 0.0
-0.824338434499 0.0 0.0
-1.34212886125 0.0 0.0
-1.14436388431 0.0 0.0
-1.18383468449 0.0 0.0
-1.24638412754 0.0 0.0
-1.58704100823 0.0 0.0
-0.952232840758 0.0 0.0
-1.60540323699 0.0 0.0
-1.43335388169 0.0 0.0
-1.06671695229 0.0 0.0
-1.02803895606 0.0 0.0
-1.54932778921 0.0 0.0
-1.07596440369 0.0 0.0
-1.51693410131 0.0 0.0
-1.29553908772 0.0 0.0
-1.18243567774 0.0 0.0
-1.12943782933 0.0 0.0
-1.53011077584 0.0 0.0
-0.981753593882 0.0 0.0
-1.4984073665 0.0 0.0
-1.53045422166 0.0 0.0
-1.00880566103 0.0 0.0
-1.56675329947 0.0 0.0
-1.28904513887 0.0 0.0
-1.21332775679 0.0 0.0
-1.1951909298 0.0 0.0
-2.08157241929 0.0 0.0
-1.98022467551 0.0 0.0
-1.2624294148 0.0 0.0
-1.59542088826 0.0 0.0
-1.0063468818 0.0 0.0
-1.4701484903 0.0 0.0
-1.40370272398 0.0 0.0
-1.23192761506 0.0 0.0
-1.19250530189 0.0 0.0
-2.03761129929 0.0 0.0
-2.14677368233 0.0 0.0
-1.40977568417 0.0 0.0
-1.50118836802 0.0 0.0
-1.01939996078 0.0 0.0
-1.47440096567 0.0 0.0
-1.35403666116 0.0 0.0
-1.23309918355 0.0 0.0
-1.19284198669 0.0 0.0
-2.02030179808 0.0 0.0
-2.07920953303 0.0 0.0
-1.3481261301 0.0 0.0
-1.54153521119 0.0 0.0
-1.0046631629 0.0 0.0
-1.47248380509 0.0 0.0
-1.35776044932 0.0 0.0
-1.23070901535 0.0 0.0
-1.19551443402 0.0 0.0
-2.04880114062 0.0 0.0
-2.04309589866 0.0 0.0
-1.33733270523 0.0 0.0
-1.5180936888 0.0 0.0
-1.05748112169 0.0 0.0
-1.34387282622 0.0 0.0
-1.55549284893 0.0 0.0
-1.08670511233 0.0 0.0
-1.2326755032 0.0 0.0
-1.46603691599 0.0 0.0
-1.46943316554 0.0 0.0
-1.13662912273 0.0 0.0
-1.2601691014 0.0 0.0
-1.39303409307 0.0 0.0
-0.963165982687 0.0 0.0
-1.60889038466 0.0 0.0
-1.11309588151 0.0 0.0
-1.33581314548 0.0 0.0
-1.3155945713 0.0 0.0
-1.43107016646 0.0 0.0
-1.0055126632 0.0 0.0
-1.66721036788 0.0 0.0
-1.24811951808 0.0 0.0
-1.19959640953 0.0 0.0
-1.13205387902 0.0 0.0
-1.48459528299 0.0 0.0
-1.47244696156 0.0 0.0
-1.23822727987 0.0 0.0
-1.11920437255 0.0 0.0
-1.5890908714 0.0 0.0
-1.25329840674 0.0 0.0
-1.56736541017 0.0 0.0
-1.13838093403 0.0 0.0
-1.28352751737 0.0 0.0
-1.976591768 0.0 0.0
-2.0828524744 0.0 0.0
-1.23378817218 0.0 0.0
-1.253454484 0.0 0.0
-1.35445719446 0.0 0.0
-1.51162647418 0.0 0.0
-1.01751802333 0.0 0.0
-1.54447392979 0.0 0.0
-1.36324529599 0.0 0.0
-2.04148782037 0.0 0.0
-2.05379480123 0.0 0.0
-1.1965141699 0.0 0.0
-1.23158370565 0.0 0.0
-1.36056955959 0.0 0.0
-1.47631389991 0.0 0.0
-1.00692499978 0.0 0.0
-1.54849411403 0.0 0.0
-1.35740264611 0.0 0.0
-2.09162821692 0.0 0.0
-2.02738505404 0.0 0.0
-1.20320658605 0.0 0.0
-1.24251579898 0.0 0.0
-1.39991941589 0.0 0.0
-1.54161058466 0.0 0.0
-1.06503992374 0.0 0.0
-1.64211461242 0.0 0.0
-1.59453617776 0.0 0.0
-2.35454499358 0.0 0.0
-2.1839735998 0.0 0.0
-1.36426088259 0.0 0.0
-1.40661443074 0.0 0.0
-1.85030483853 0.0 0.0
-2.05691668953 0.0 0.0
-1.30059092294 0.0 0.0
-2.33096088433 0.0 0.0
-1.80326707916 0.0 0.0
-2.67133120849 0.0 0.0
-2.76081967594 0.0 0.0
-1.73000759405 0.0 0.0
-1.73543048852 0.0 0.0
-2.05705472903 0.0 0.0
-2.61816382641 0.0 0.0
-1.57914727278 0.0 0.0
-2.61000350697 0.0 0.0
-2.60346595789 0.0 0.0
-1.58763954597 0.0 0.0
-2.71337185891 0.0 0.0
-1.92149042029 0.0 0.0
-2.11213443662 0.0 0.0
-2.35904312395 0.0 0.0
-2.73388003826 0.0 0.0
-1.99037726723 0.0 0.0
-2.90030575097 0.0 0.0
-1.92632255391 0.0 0.0
-2.05718789959 0.0 0.0
-2.81324836629 0.0 0.0
-3.11258426337 0.0 0.0
-1.90776747106 0.0 0.0
-3.11143488179 0.0 0.0
-2.4379726037 0.0 0.0
-2.45878372925 0.0 0.0
-2.4147514521 0.0 0.0
-2.64980531829 0.0 0.0
-1.75287725149 0.0 0.0
-3.03403576951 0.0 0.0
-2.52834759705 0.0 0.0
-2.9690740653 0.0 0.0
-3.3795010657 0.0 0.0
-2.74329046081 0.0 0.0
-3.79677969285 0.0 0.0
-3.1734812809 0.0 0.0
-4.03643723202 0.0 0.0
1.99307958478 0.0 0.0
1.9723183391 0.0 0.0
1.93771626298 0.0 0.0
1.8892733564 0.0 0.0
1.82698961938 0.0 0.0
1.7508650519 0.0 0.0
1.66089965398 0.0 0.0
1.55709342561 0.0 0.0
1.43944636678 0.0 0.0
1.30795847751 0.0 0.0
1.16262975779 0.0 0.0
1.00346020761 0.0 0.0
0.830449826992 0.0 0.0
0.643598615918 0.0 0.0
0.442906574396 0.0 0.0
0.228373702423 0.0 0.0
1.99826989619 0.0 0.0
1.98442906574 0.0 0.0
1.95674740484 0.0 0.0
1.9152249135 0.0 0.0
1.8598615917 0.0 0.0
1.79065743945 0.0 0.0
1.70761245675 0.0 0.0
1.6107266436 0.0 0.0
1.5 0.0 0.0
1.37543252595 0.0 0.0
1.23702422146 0.0 0.0
1.08477508651 0.0 0.0
0.918685121109 0.0 0.0
0.738754325261 0.0 0.0
0.544982698963 0.0 0.0
0.337370242215 0.0 0.0
0.115916955018 0.0 0.0
1.29555174276 0.00607706671953 0.0
1.45281898863 -0.0109718347492 0.0
1.30768594076 0.000681680527804 0.0
1.46393606659 -0.00389033460058 0.0
1.30863464857 -0.00204625646452 0.0
1.44012285356 0.0254558313602 0.0
1.29195980923 0.0305012288614 0.0
1.32353004958 -0.00100510516133 0.0
1.2176875963 0.127977491125 0.0
1.33838133692 -0.00326358657459 0.0
1.33647061891 0.0383404877157 0.0
1.3379853595 -0.00379598705625 0.0
1.33815355999 0.00588113028323 0.0
1.33727332372 -0.00313228294976 0.0
1.33777812802 0.00364376238896 0.0
1.30873145809 0.000728561372669 0.0
1.30852787107 -0.000799625930312 0.0
1.31149278182 -0.003111045743 0.0
1.24219504369 0.00150639050092 0.0
1.10257265991 -0.00552666791229 0.0
1.30913024986 -0.0133666234699 0.0
1.68374095615 0.0111417502717 0.0
1.24696909272 0.00352597584584 0.0
1.1039578522 0.00993871454608 0.0
1.28934951638 0.00562855022705 0.0
1.24769888781 -0.0035895672304 0.0
1.05967251984 0.0668486094144 0.0
1.10612359365 0.0207105936987 0.0
1.25148398589 0.00441367444102 0.0
1.28883160634 -0.00537589685811 0.0
1.30681999892 4.76761923682e-05 0.0
1.20820826804 0.0330752379813 0.0
1.24854759558 0.00338091421505 0.0
1.24517987976 0.000814742787638 0.0
1.24848671595 0.00336078823454 0.0
1.24857153423 -0.00340612325381 0.0
1.23518119167 0.00253936057383 0.0
1.23476534567 -0.00175351029939 0.0
1.29640931216 0.0022715145713 0.0
1.30353632344 0.00747102261837 0.0
1.29730200094 0.00221826365947 0.0
1.36819986382 0.169384789669 0.0
1.664108455 -0.0406322358703 0.0
1.30049037492 0.002150719635 0.0
1.30868288858 0.0114185056121 0.0
1.66293432709 -0.00783794651419 0.0
1.70520091452 -0.00290948705317 0.0
1.31141497233 0.00674751940461 0.0
1.27078803792 -0.00230541955282 0.0
1.25953201788 0.00280444741383 0.0
1.20362851662 -0.00100144596868 0.0
1.20381840731 0.000799094479944 0.0
1.01742076745 -0.000495004023082 0.0
1.1921885694 -0.001326069752 0.0
1.32187563368 -0.0014892124134 0.0
1.70806681884 -0.0103884780832 0.0
1.13556056833 -0.000753285987747 0.0
0.903913759691 -0.00204989648683 0.0
1.11524143969 0.00145551684485 0.0
0.878078119245 0.038903080804 0.0
1.35159093751 0.000846519012136 0.0
1.35039743122 0.00347193512393 0.0
1.34894911249 -0.00132710447574 0.0
1.3399042094 0.00619046304658 0.0
0.988633662344 0.0203475922153 0.0
1.13154061351 0.00144758427467 0.0
1.05376985199 0.0280253788089 0.0
1.13369156316 -0.000930818448963 0.0
1.12300584519 0.0113614529271 0.0
1.13390506303 -0.0014243446277 0.0
1.13302792537 0.0013306755839 0.0
1.1333329153 -0.000873909900987 0.0
1.13335992907 0.00116635610031 0.0
1.34126349651 -0.0060276393573 0.0
1.378063548 0.0394481740765 0.0
1.34797168452 -0.00142531742427 0.0
1.74661982844 0.114105363208 0.0
1.34662584042 -0.00184756215383 0.0
1.1228587698 -0.00243945216779 0.0
1.12225993963 0.00174526147895 0.0
1.82427475679 -0.0112727437185 0.0
1.31504162074 -0.00110347152406 0.0
1.32557041747 0.00172765712876 0.0
1.80368918136 -0.00244226448479 0.0
1.24928755599 0.00171505831815 0.0
1.72670491044 0.0169553679631 0.0
1.14939710683 -0.00158935640932 0.0
0.917640976706 -0.000491728720851 0.0
1.31786395382 0.00110393812375 0.0
1.76617378006 -0.00875668924918 0.0
1.07934905892 -0.00105707864172 0.0
1.28199938506 -0.0113892015063 0.0
1.43856168562 0.00309296408478 0.0
1.29028322333 -0.00491758846699 0.0
1.30364454193 0.00322459032879 0.0
1.30226241904 -0.0032773957664 0.0
1.29741632405 0.00695561062263 0.0
1.33209354783 -0.00400810783783 0.0
1.29764331924 -0.00669737039505 0.0
1.32321737488 0.00241872756451 0.0
1.32256925965 0.00352334030682 0.0
1.32332584415 0.00386734748672 0.0
1.47538704277 0.0117004506669 0.0
1.32180816555 0.00627051032829 0.0
1.40984035283 0.026811673571 0.0
1.31083586093 0.0691230102094 0.0
1.32251530965 0.00325017265704 0.0
1.19866766941 0.0366357846229 0.0
1.32435971168 0.0035841962887 0.0
1.4683143938 0.000733354532852 0.0
1.31157092911 -0.00521421603598 0.0
1.23490737527 -0.0170349165462 0.0
1.90862479115 0.0356616315478 0.0
1.26282936301 -0.00758249061253 0.0
1.26522747207 0.00921767228974 0.0
1.27090369442 -0.00573020649065 0.0
1.26735527123 0.00918138872741 0.0
1.35427352719 0.0652338370726 0.0
1.26435556502 0.00716150919141 0.0
1.99039829699 -0.0220653481801 0.0
1.29570238059 -0.00542753703876 0.0
1.95944657962 -0.00161969946812 0.0
2.03232441881 0.00268497372947 0.0
1.33397986155 0.00761494172681 0.0
0.957673353945 4.71182616395e-05 0.0
0.691828278015 -0.00339849756547 0.0
0.936782086392 -0.00134051163518 0.0
0.747023760329 0.0324031529686 0.0
0.934762279394 0.00090764064192 0.0
0.684559864285 0.0182605628973 0.0
0.677170944729 0.00626230592292 0.0
0.940344932792 -0.00278382681651 0.0
0.856435594673 0.00994999135056 0.0
0.938130841534 0.00160768914316 0.0
0.841396658333 0.00647503335519 0.0
0.943310809473 0.00268499169289 0.0
0.917627232092 0.00768534038891 0.0
0.936264625037 0.00190714284516 0.0
0.899383182714 0.0162351584636 0.0
0.939151485898 -0.00229020870902 0.0
0.934307985799 -0.00152932210965 0.0
0.937330480808 0.00165728785598 0.0
0.800261639873 0.0181741883498 0.0
0.939734783894 0.0023181499461 0.0
0.935653226 0.00606622964433 0.0
0.940055780432 -0.00270070862912 0.0
0.936089495205 -0.00162281611383 0.0
0.939856637737 0.00280115325577 0.0
0.941993106081 -0.000922426897159 0.0
0.942386252692 0.00263595394129 0.0
1.26239006337 0.00875302975109 0.0
1.3048684582 0.00261765173388 0.0
1.41239955996 -0.00637147318365 0.0
1.28039002515 -0.00645480087249 0.0
1.29979198873 0.0044145632655 0.0
1.19187679949 0.00928711181679 0.0
1.33030718736 0.00207142241709 0.0
1.27375676537 0.105703252798 0.0
1.32161313799 0.00155740112815 0.0
1.32001210536 0.0114669894528 0.0
1.30564489606 0.0517604587599 0.0
1.33625795944 0.000791541588993 0.0
1.32968676016 -0.00118175707918 0.0
1.32200902001 -0.000937633089173 0.0
1.32992934826 0.00171284034773 0.0
1.43318800904 0.00456898762995 0.0
1.32789742789 0.000958289078878 0.0
0.912509680526 -0.000416434880681 0.0
0.910519435525 0.000876314325702 0.0
1.38043692333 0.0207962631911 0.0
2.12057528689 -0.0189416594443 0.0
0.69595889009 0.00453246776247 0.0
0.948193540109 -1.58284263552e-05 0.0
0.920920645395 -0.00546964053307 0.0
0.661489109165 0.00260416642031 0.0
1.26795594411 -0.0282259999196 0.0
1.94025129679 0.0606693485397 0.0
1.24097812286 -0.0107831438241 0.0
1.94594354633 0.0138929781434 0.0
1.23360534975 -0.0159196284315 0.0
1.52524140223 0.200678651785 0.0