# vtk DataFile Version 2.0
2D Simulation Python
ASCII
DATASET UNSTRUCTURED_GRID
FIELD FieldData 1
NODES 1 2 int
2790 1289

POINTS 2790 double
0.0 1.0 0.0
1.725 1.0 0.0
8.275 1.0 0.0
20.0 1.0 0.0
20.0 0.0 0.0
0.0 0.0 0.0
0.1916666666663293 1.0 0.0
0.3833333333324708 1.0 0.0
0.574999999998553 1.0 0.0
0.7666666666645966 1.0 0.0
0.9583333333312576 1.0 0.0
1.149999999998384 1.0 0.0
1.341666666665662 1.0 0.0
1.533333333332819 1.0 0.0
0.0958333333331406 1.0 0.0
0.2874999999994247 1.0 0.0
0.4791666666655395 1.0 0.0
0.6708333333315728 1.0 0.0
0.8624999999976626 1.0 0.0
1.054166666664886 1.0 0.0
1.245833333332057 1.0 0.0
1.437499999999343 1.0 0.0
1.629166666666455 1.0 0.0
1.92348484848444 1.0 0.0
2.121969696968978 1.0 0.0
2.320454545453434 1.0 0.0
2.518939393937826 1.0 0.0
2.717424242422235 1.0 0.0
2.915909090906411 1.0 0.0
3.1143939393908 1.0 0.0
3.312878787875129 1.0 0.0
3.511363636359531 1.0 0.0
3.709848484843827 1.0 0.0
3.90833333332816 1.0 0.0
4.106818181812215 1.0 0.0
4.305303030296804 1.0 0.0
4.503787878781365 1.0 0.0
4.702272727265711 1.0 0.0
4.900757575750005 1.0 0.0
5.099242424235156 1.0 0.0
5.297727272720327 1.0 0.0
5.496212121205663 1.0 0.0
5.694696969690998 1.0 0.0
5.89318181817668 1.0 0.0
6.09166666666213 1.0 0.0
6.290151515147423 1.0 0.0
6.488636363633031 1.0 0.0
6.687121212118713 1.0 0.0
6.885606060604342 1.0 0.0
7.084090909089381 1.0 0.0
7.282575757574369 1.0 0.0
7.481060606059355 1.0 0.0
7.679545454544343 1.0 0.0
7.878030303029329 1.0 0.0
8.076515151514705 1.0 0.0
1.824242424242199 1.0 0.0
2.022727272726695 1.0 0.0
2.221212121211181 1.0 0.0
2.41969696969563 1.0 0.0
2.618181818180092 1.0 0.0
2.816666666664316 1.0 0.0
3.015151515148624 1.0 0.0
3.213636363633039 1.0 0.0
3.412121212117267 1.0 0.0
3.610606060601583 1.0 0.0
3.809090909085975 1.0 0.0
4.007575757570153 1.0 0.0
4.206060606054539 1.0 0.0
4.404545454539001 1.0 0.0
4.603030303023853 1.0 0.0
4.801515151507715 1.0 0.0
4.999999999992074 1.0 0.0
5.198484848477777 1.0 0.0
5.396969696963081 1.0 0.0
5.595454545448261 1.0 0.0
5.793939393933949 1.0 0.0
5.992424242419331 1.0 0.0
6.190909090904785 1.0 0.0
6.389393939390224 1.0 0.0
6.587878787875795 1.0 0.0
6.786363636361617 1.0 0.0
6.984848484846598 1.0 0.0
7.183333333331875 1.0 0.0
7.381818181816625 1.0 0.0
7.580303030301849 1.0 0.0
7.778787878786936 1.0 0.0
7.977272727272114 1.0 0.0
8.175757575757618 1.0 0.0
8.473728813558951 1.0 0.0
8.672457627118133 1.0 0.0
8.871186440676855 1.0 0.0
9.069915254236154 1.0 0.0
9.268644067794812 1.0 0.0
9.467372881354057 1.0 0.0
9.666101694912944 1.0 0.0
9.864830508471961 1.0 0.0
10.06355932203108 1.0 0.0
10.26228813558986 1.0 0.0
10.46101694914916 1.0 0.0
10.65974576270777 1.0 0.0
10.85847457626706 1.0 0.0
11.05720338982589 1.0 0.0
11.25593220338497 1.0 0.0
11.45466101694402 1.0 0.0
11.65338983050287 1.0 0.0
11.85211864406215 1.0 0.0
12.05084745762035 1.0 0.0
12.24957627117938 1.0 0.0
12.44830508473794 1.0 0.0
12.64703389829659 1.0 0.0
12.84576271185557 1.0 0.0
13.04449152541379 1.0 0.0
13.24322033897301 1.0 0.0
13.44194915253121 1.0 0.0
13.6406779660903 1.0 0.0
13.83940677964874 1.0 0.0
14.03813559320751 1.0 0.0
14.23686440676681 1.0 0.0
14.43559322032663 1.0 0.0
14.63432203388679 1.0 0.0
14.8330508474463 1.0 0.0
15.0317796610067 1.0 0.0
15.23050847456608 1.0 0.0
15.42923728812645 1.0 0.0
15.62796610168606 1.0 0.0
15.82669491524602 1.0 0.0
16.02542372880584 1.0 0.0
16.22415254236431 1.0 0.0
16.42288135592496 1.0 0.0
16.62161016948498 1.0 0.0
16.82033898304518 1.0 0.0
17.01906779660567 1.0 0.0
17.2177966101654 1.0 0.0
17.41652542372565 1.0 0.0
17.61525423728425 1.0 0.0
17.81398305084494 1.0 0.0
18.01271186440355 1.0 0.0
18.21144067796387 1.0 0.0
18.41016949152309 1.0 0.0
18.6088983050827 1.0 0.0
18.80762711864282 1.0 0.0
19.00635593220153 1.0 0.0
19.20508474576211 1.0 0.0
19.40381355932072 1.0 0.0
19.60254237288117 1.0 0.0
19.80127118644013 1.0 0.0
8.374364406779554 1.0 0.0
8.573093220338519 1.0 0.0
8.771822033897509 1.0 0.0
8.970550847456504 1.0 0.0
9.169279661015429 1.0 0.0
9.368008474574502 1.0 0.0
9.566737288133496 1.0 0.0
9.765466101692677 1.0 0.0
9.964194915251602 1.0 0.0
10.16292372881015 1.0 0.0
10.36165254236967 1.0 0.0
10.56038135592849 1.0 0.0
10.75911016948728 1.0 0.0
10.95783898304648 1.0 0.0
11.15656779660554 1.0 0.0
11.35529661016447 1.0 0.0
11.55402542372345 1.0 0.0
11.75275423728253 1.0 0.0
11.95148305084111 1.0 0.0
12.15021186439983 1.0 0.0
12.34894067795883 1.0 0.0
12.54766949151722 1.0 0.0
12.74639830507616 1.0 0.0
12.94512711863486 1.0 0.0
13.14385593219357 1.0 0.0
13.34258474575207 1.0 0.0
13.54131355931069 1.0 0.0
13.7400423728695 1.0 0.0
13.93877118642822 1.0 0.0
14.13749999998697 1.0 0.0
14.33622881354686 1.0 0.0
14.53495762710678 1.0 0.0
14.73368644066656 1.0 0.0
14.93241525422655 1.0 0.0
15.13114406778625 1.0 0.0
15.32987288134641 1.0 0.0
15.52860169490635 1.0 0.0
15.7273305084661 1.0 0.0
15.9260593220261 1.0 0.0
16.12478813558534 1.0 0.0
16.32351694914468 1.0 0.0
16.52224576270527 1.0 0.0
16.72097457626511 1.0 0.0
16.91970338982543 1.0 0.0
17.11843220338561 1.0 0.0
17.31716101694539 1.0 0.0
17.51588983050497 1.0 0.0
17.71461864406449 1.0 0.0
17.91334745762401 1.0 0.0
18.11207627118383 1.0 0.0
18.31080508474307 1.0 0.0
18.50953389830311 1.0 0.0
18.70826271186271 1.0 0.0
18.90699152542239 1.0 0.0
19.10572033898203 1.0 0.0
19.30444915254171 1.0 0.0
19.50317796610107 1.0 0.0
19.70190677966065 1.0 0.0
19.90063559322003 1.0 0.0
20.0 0.7999999999999998 0.0
20.0 0.6000000000013869 0.0
20.0 0.4000000000016644 0.0
20.0 0.2000000000008322 0.0
20.0 0.9000000000000369 0.0
20.0 0.7000000000005904 0.0
20.0 0.5000000000017577 0.0
20.0 0.3000000000012483 0.0
20.0 0.1000000000004161 0.0
19.8 0.0 0.0
19.6 0.0 0.0
19.4 0.0 0.0
19.2 0.0 0.0
19.0 0.0 0.0
18.8 0.0 0.0
18.6 0.0 0.0
18.4 0.0 0.0
18.2 0.0 0.0
18.0 0.0 0.0
17.8 0.0 0.0
17.59999999999999 0.0 0.0
17.4 0.0 0.0
17.2 0.0 0.0
16.99999999999999 0.0 0.0
16.79999999999999 0.0 0.0
16.59999999999999 0.0 0.0
16.4 0.0 0.0
16.2 0.0 0.0
15.99999999999999 0.0 0.0
15.79999999999999 0.0 0.0
15.59999999999999 0.0 0.0
15.4 0.0 0.0
15.2 0.0 0.0
15.0 0.0 0.0
14.79999999999999 0.0 0.0
14.59999999999999 0.0 0.0
14.4 0.0 0.0
14.2 0.0 0.0
13.99999999999999 0.0 0.0
13.8 0.0 0.0
13.59999999999999 0.0 0.0
13.4 0.0 0.0
13.2 0.0 0.0
13.0 0.0 0.0
12.79999999999999 0.0 0.0
12.6 0.0 0.0
12.4 0.0 0.0
12.2 0.0 0.0
11.99999999999999 0.0 0.0
11.8 0.0 0.0
11.6 0.0 0.0
11.4 0.0 0.0
11.2 0.0 0.0
11.0 0.0 0.0
10.8 0.0 0.0
10.6 0.0 0.0
10.4 0.0 0.0
10.2 0.0 0.0
9.999999999999998 0.0 0.0
9.799999999999995 0.0 0.0
9.599999999999998 0.0 0.0
9.399999999999997 0.0 0.0
9.199999999999998 0.0 0.0
8.999999999999996 0.0 0.0
8.799999999999997 0.0 0.0
8.599999999999996 0.0 0.0
8.399999999999999 0.0 0.0
8.199999999999996 0.0 0.0
7.999999999999998 0.0 0.0
7.799999999999997 0.0 0.0
7.599999999999998 0.0 0.0
7.399999999999999 0.0 0.0
7.199999999999998 0.0 0.0
6.999999999999995 0.0 0.0
6.799999999999995 0.0 0.0
6.599999999999998 0.0 0.0
6.399999999999997 0.0 0.0
6.199999999999996 0.0 0.0
5.999999999999998 0.0 0.0
5.799999999999999 0.0 0.0
5.599999999999996 0.0 0.0
5.399999999999995 0.0 0.0
5.199999999999996 0.0 0.0
4.999999999999998 0.0 0.0
4.799999999999997 0.0 0.0
4.599999999999998 0.0 0.0
4.399999999999999 0.0 0.0
4.199999999999999 0.0 0.0
3.999999999999996 0.0 0.0
3.799999999999997 0.0 0.0
3.599999999999998 0.0 0.0
3.399999999999999 0.0 0.0
3.199999999999999 0.0 0.0
3.0 0.0 0.0
2.800000000000001 0.0 0.0
2.599999999999998 0.0 0.0
2.399999999999999 0.0 0.0
2.199999999999996 0.0 0.0
1.999999999999996 0.0 0.0
1.800000000000001 0.0 0.0
1.599999999999998 0.0 0.0
1.399999999999999 0.0 0.0
1.200000000000003 0.0 0.0
1.0 0.0 0.0
0.7999999999999972 0.0 0.0
0.5999999999999979 0.0 0.0
0.3999999999999986 0.0 0.0
0.1999999999999993 0.0 0.0
19.90000000000022 0.0 0.0
19.69999999999997 0.0 0.0
19.49999999999987 0.0 0.0
19.30000000000005 0.0 0.0
19.09999999999999 0.0 0.0
18.89999999999987 0.0 0.0
18.7 0.0 0.0
18.49999999999999 0.0 0.0
18.30000000000001 0.0 0.0
18.09999999999987 0.0 0.0
17.90000000000013 0.0 0.0
17.7 0.0 0.0
17.49999999999987 0.0 0.0
17.30000000000025 0.0 0.0
17.10000000000001 0.0 0.0
16.90000000000005 0.0 0.0
16.70000000000003 0.0 0.0
16.50000000000006 0.0 0.0
16.29999999999997 0.0 0.0
16.09999999999999 0.0 0.0
15.89999999999987 0.0 0.0
15.69999999999999 0.0 0.0
15.49999999999999 0.0 0.0
15.3 0.0 0.0
15.10000000000003 0.0 0.0
14.90000000000005 0.0 0.0
14.69999999999992 0.0 0.0
14.49999999999996 0.0 0.0
14.29999999999999 0.0 0.0
14.10000000000008 0.0 0.0
13.89999999999988 0.0 0.0
13.70000000000003 0.0 0.0
13.50000000000004 0.0 0.0
13.29999999999992 0.0 0.0
13.09999999999995 0.0 0.0
12.90000000000016 0.0 0.0
12.7 0.0 0.0
12.49999999999986 0.0 0.0
12.30000000000003 0.0 0.0
12.10000000000016 0.0 0.0
11.90000000000005 0.0 0.0
11.69999999999994 0.0 0.0
11.49999999999993 0.0 0.0
11.30000000000005 0.0 0.0
11.0999999999999 0.0 0.0
10.90000000000004 0.0 0.0
10.69999999999995 0.0 0.0
10.50000000000012 0.0 0.0
10.29999999999999 0.0 0.0
10.09999999999993 0.0 0.0
9.900000000000077 0.0 0.0
9.699999999999969 0.0 0.0
9.499999999999982 0.0 0.0
9.299999999999969 0.0 0.0
9.100000000000108 0.0 0.0
8.899999999999972 0.0 0.0
8.699999999999958 0.0 0.0
8.499999999999998 0.0 0.0
8.30000000000003 0.0 0.0
8.099999999999977 0.0 0.0
7.899999999999974 0.0 0.0
7.700000000000166 0.0 0.0
7.499999999999854 0.0 0.0
7.299999999999997 0.0 0.0
7.100000000000019 0.0 0.0
6.900000000000002 0.0 0.0
6.699999999999974 0.0 0.0
6.500000000000037 0.0 0.0
6.299999999999981 0.0 0.0
6.100000000000014 0.0 0.0
5.899999999999949 0.0 0.0
5.700000000000049 0.0 0.0
5.499999999999956 0.0 0.0
5.300000000000118 0.0 0.0
5.100000000000005 0.0 0.0
4.900000000000109 0.0 0.0
4.699999999999982 0.0 0.0
4.499999999999936 0.0 0.0
4.300000000000137 0.0 0.0
4.100000000000012 0.0 0.0
3.899999999999888 0.0 0.0
3.69999999999974 0.0 0.0
3.500000000000046 0.0 0.0
3.299999999999965 0.0 0.0
3.099999999999817 0.0 0.0
2.900000000000066 0.0 0.0
2.699999999999793 0.0 0.0
2.500000000000064 0.0 0.0
2.299999999999823 0.0 0.0
[...]
POINT_DATA 2790
VECTORS vector double
1.0 0.0 0.0
0.0 0.0 0.0
0.0 0.0 0.0
0.0 0.0 0.0
0.99746532853 0.0 0.0
1.0 0.0 0.0
0.0 0.0 0.0
0.0 0.0 0.0
0.0 0.0 0.0
0.0 0.0 0.0
0.0 0.0 0.0
0.0 0.0 0.0
0.0 0.0 0.0
0.0 0.0 0.0
0.0 0.0 0.0
0.0 0.0 0.0
0.0 0.0 0.0
0.0 0.0 0.0
0.0 0.0 0.0
0.0 0.0 0.0
0.0 0.0 0.0
0.0 0.0 0.0
0.0 0.0 0.0
0.0 0.0 0.0
0.0 0.0 0.0
0.0 0.0 0.0
0.0 0.0 0.0
0.0 0.0 0.0
0.0 0.0 0.0
0.0 0.0 0.0
0.0 0.0 0.0
0.0 0.0 0.0
0.0 0.0 0.0
0.0 0.0 0.0
0.0 0.0 0.0
0.0 0.0 0.0
0.0 0.0 0.0
0.0 0.0 0.0
0.0 0.0 0.0
0.0 0.0 0.0
0.0 0.0 0.0
0.0 0.0 0.0
0.0 0.0 0.0
0.0 0.0 0.0
0.0 0.0 0.0
0.0 0.0 0.0
0.0 0.0 0.0
0.0 0.0 0.0
0.0 0.0 0.0
0.0 0.0 0.0
0.0 0.0 0.0
0.0 0.0 0.0
0.0 0.0 0.0
0.0 0.0 0.0
0.0 0.0 0.0
0.0 0.0 0.0
0.0 0.0 0.0
0.0 0.0 0.0
0.0 0.0 0.0
0.0 0.0 0.0
0.0 0.0 0.0
0.0 0.0 0.0
0.0 0.0 0.0
0.0 0.0 0.0
0.0 0.0 0.0
0.0 0.0 0.0
0.0 0.0 0.0
0.0 0.0 0.0
0.0 0.0 0.0
0.0 0.0 0.0
0.0 0.0 0.0
0.0 0.0 0.0
0.0 0.0 0.0
0.0 0.0 0.0
0.0 0.0 0.0
0.0 0.0 0.0
0.0 0.0 0.0
0.0 0.0 0.0
0.0 0.0 0.0
0.0 0.0 0.0
0.0 0.0 0.0
0.0 0.0 0.0
0.0 0.0 0.0
0.0 0.0 0.0
0.0 0.0 0.0
0.0 0.0 0.0
0.0 0.0 0.0
0.0 0.0 0.0
0.0 0.0 0.0
0.0 0.0 0.0
0.0 0.0 0.0
0.0 0.0 0.0
0.0 0.0 0.0
0.0 0.0 0.0
0.0 0.0 0.0
0.0 0.0 0.0
0.0 0.0 0.0
0.0 0.0 0.0
0.0 0.0 0.0
0.0 0.0 0.0
0.0 0.0 0.0
0.0 0.0 0.0
0.0 0.0 0.0
0.0 0.0 0.0
0.0 0.0 0.0
0.0 0.0 0.0
0.0 0.0 0.0
0.0 0.0 0.0
0.0 0.0 0.0
0.0 0.0 0.0
0.0 0.0 0.0
0.0 0.0 0.0
0.0 0.0 0.0
0.0 0.0 0.0
0.0 0.0 0.0
0.0 0.0 0.0
0.0 0.0 0.0
0.0 0.0 0.0
0.0 0.0 0.0
0.0 0.0 0.0
0.0 0.0 0.0
0.0 0.0 0.0
0.0 0.0 0.0
0.0 0.0 0.0
0.0 0.0 0.0
0.0 0.0 0.0
0.0 0.0 0.0
0.0 0.0 0.0
0.0 0.0 0.0
0.0 0.0 0.0
0.0 0.0 0.0
0.0 0.0 0.0
0.0 0.0 0.0
0.0 0.0 0.0
0.0 0.0 0.0
0.0 0.0 0.0
0.0 0.0 0.0
0.0 0.0 0.0
0.0 0.0 0.0
0.0 0.0 0.0
0.0 0.0 0.0
0.0 0.0 0.0
0.0 0.0 0.0
0.0 0.0 0.0
0.0 0.0 0.0
0.0 0.0 0.0
0.0 0.0 0.0
0.0 0.0 0.0
0.0 0.0 0.0
0.0 0.0 0.0
0.0 0.0 0.0
0.0 0.0 0.0
0.0 0.0 0.0
0.0 0.0 0.0
0.0 0.0 0.0
0.0 0.0 0.0
0.0 0.0 0.0
0.0 0.0 0.0
0.0 0.0 0.0
0.0 0.0 0.0
0.0 0.0 0.0
0.0 0.0 0.0
0.0 0.0 0.0
0.0 0.0 0.0
0.0 0.0 0.0
0.0 0.0 0.0
0.0 0.0 0.0
0.0 0.0 0.0
0.0 0.0 0.0
0.0 0.0 0.0
0.0 0.0 0.0
0.0 0.0 0.0
0.0 0.0 0.0
0.0 0.0 0.0
0.0 0.0 0.0
0.0 0.0 0.0
0.0 0.0 0.0
0.0 0.0 0.0
0.0 0.0 0.0
0.0 0.0 0.0
0.0 0.0 0.0
0.0 0.0 0.0
0.0 0.0 0.0
0.0 0.0 0.0
0.0 0.0 0.0
0.0 0.0 0.0
0.0 0.0 0.0
0.0 0.0 0.0
0.0 0.0 0.0
0.0 0.0 0.0
0.0 0.0 0.0
0.0 0.0 0.0
0.0 0.0 0.0
0.0 0.0 0.0
0.0 0.0 0.0
0.0 0.0 0.0
0.0 0.0 0.0
0.0 0.0 0.0
0.0 0.0 0.0
0.0 0.0 0.0
0.0 0.0 0.0
0.0 0.0 0.0
0.0 0.0 0.0
0.0 0.0 0.0
0.0 0.0 0.0
0.947255005399 -5.81901263291e-06 0.0
0.994920623098 1.0251334717e-05 0.0
1.00051144856 6.95964879974e-06 0.0
0.999548045856 -6.36000301108e-07 0.0
0.897146545187 -5.05072765271e-06 0.0
1.00313196665 1.14208994646e-06 0.0
0.999144464938 8.22576370282e-06 0.0
0.999762226544 4.30154100958e-06 0.0
1.00007680625 1.10061467225e-06 0.0
0.999500145297 0.0 0.0
1.00083530511 0.0 0.0
1.00077738914 0.0 0.0
0.999673849908 0.0 0.0
1.00105565385 0.0 0.0
0.999902008936 0.0 0.0
0.999641205912 0.0 0.0
0.999827643026 0.0 0.0
0.999578143067 0.0 0.0
0.999598064409 0.0 0.0
0.999891265585 0.0 0.0
0.999620308756 0.0 0.0
0.999582540002 0.0 0.0
1.00003137908 0.0 0.0
1.00120984638 0.0 0.0
1.00113218038 0.0 0.0
1.00024462498 0.0 0.0
1.00109119971 0.0 0.0
1.00107165031 0.0 0.0
1.00020722765 0.0 0.0
1.0010517246 0.0 0.0
1.00104365929 0.0 0.0
1.00019213087 0.0 0.0
1.00104304035 0.0 0.0
1.00103531217 0.0 0.0
1.00018105639 0.0 0.0
1.00103773745 0.0 0.0
1.00103400945 0.0 0.0
1.00018232762 0.0 0.0
1.00104816532 0.0 0.0
1.0010457661 0.0 0.0
1.00019071509 0.0 0.0
1.00106085245 0.0 0.0
1.00105960281 0.0 0.0
1.00020179155 0.0 0.0
1.00110183874 0.0 0.0
1.00106829857 0.0 0.0
1.00010647846 0.0 0.0
1.00029646034 0.0 0.0
0.998324214053 0.0 0.0
0.999790418753 0.0 0.0
1.00015221017 0.0 0.0
0.998309538567 0.0 0.0
0.999771501682 0.0 0.0
1.00017839165 0.0 0.0
0.998451409538 0.0 0.0
0.999817388148 0.0 0.0
1.00029763008 0.0 0.0
0.998870604418 0.0 0.0
0.999928802184 0.0 0.0
1.00025531366 0.0 0.0
0.99801351036 0.0 0.0
0.999885408793 0.0 0.0
0.999653531158 0.0 0.0
0.999901380122 0.0 0.0
1.00032685986 0.0 0.0
0.99875034772 0.0 0.0
0.999833734906 0.0 0.0
0.999929767892 0.0 0.0
0.998610764963 0.0 0.0
0.999912034876 0.0 0.0
1.00035046663 0.0 0.0
0.99872323778 0.0 0.0
0.999886089068 0.0 0.0
1.00041378521 0.0 0.0
0.998871455057 0.0 0.0
0.999931865449 0.0 0.0
1.00024859411 0.0 0.0
0.996976318075 0.0 0.0
0.999623705963 0.0 0.0
0.99973328654 0.0 0.0
1.00098272773 0.0 0.0
1.00098508021 0.0 0.0
1.00099403513 0.0 0.0
1.00095900889 0.0 0.0
0.999750384817 0.0 0.0
0.999593482854 0.0 0.0
0.996891705419 0.0 0.0
1.00029042532 0.0 0.0
0.999973037037 0.0 0.0
0.998912756712 0.0 0.0
1.00048631481 0.0 0.0
0.999970216114 0.0 0.0
0.998856552852 0.0 0.0
1.00054757182 0.0 0.0
1.00004489066 0.0 0.0
0.998846141621 0.0 0.0
1.00053483805 0.0 0.0
1.00000281738 0.0 0.0
0.998731175632 0.0 0.0
1.00035561499 0.0 0.0
0.999885011105 0.0 0.0
0.998322677489 0.0 0.0
1.00028726635 0.0 0.0
1.00000290798 0.0 0.0
1.00046288535 0.0 0.0
0.999859939546 0.0 0.0
1.00101444229 0.0 0.0
1.00314895395 0.0 0.0
0.999978316275 0.0 0.0
0.999784076847 0.0 0.0
0.999749093571 0.0 0.0
0.999941394964 0.0 0.0
0.999901771211 0.0 0.0
0.999771525988 0.0 0.0
0.999934612471 0.0 0.0
0.999909877067 0.0 0.0
0.99993368808 0.0 0.0
0.999926935461 0.0 0.0
0.999948058293 0.0 0.0
0.999954091868 0.0 0.0
0.999950751324 0.0 0.0
1.00013290678 0.0 0.0
0.999740522002 0.0 0.0
1.00037523119 0.0 0.0
0.999948434594 0.0 0.0
0.999937124533 0.0 0.0
1.00049730421 0.0 0.0
0.999926507301 0.0 0.0
0.999913599554 0.0 0.0
1.00049585126 0.0 0.0
0.99991635509 0.0 0.0
0.999909040461 0.0 0.0
1.00048033938 0.0 0.0
0.999906168513 0.0 0.0
0.999901204748 0.0 0.0
1.00046938827 0.0 0.0
0.999906276263 0.0 0.0
0.999908273833 0.0 0.0
1.00047373084 0.0 0.0
0.999914923435 0.0 0.0
0.999918953262 0.0 0.0
1.00047451814 0.0 0.0
0.99993315577 0.0 0.0
0.99991242105 0.0 0.0
1.00042308322 0.0 0.0
0.999991601587 0.0 0.0
0.999992053858 0.0 0.0
1.00047261377 0.0 0.0
0.999909119401 0.0 0.0
0.999865169888 0.0 0.0
1.00038424799 0.0 0.0
0.99988514458 0.0 0.0
0.999841133186 0.0 0.0
1.00037311814 0.0 0.0
0.999874580658 0.0 0.0
0.999927634234 0.0 0.0
1.00040064377 0.0 0.0
0.999830918841 0.0 0.0
0.999899061584 0.0 0.0
1.00029200236 0.0 0.0
0.99996901596 0.0 0.0
0.999617626744 0.0 0.0
1.00004873127 0.0 0.0
0.999642433139 0.0 0.0
1.00043628044 0.0 0.0
0.999816454039 0.0 0.0
0.99973445508 0.0 0.0
1.00041720938 0.0 0.0
0.999937544451 0.0 0.0
0.999809928589 0.0 0.0
1.00034445352 0.0 0.0
0.999866165533 0.0 0.0
0.9998337231 0.0 0.0
1.00034962507 0.0 0.0
0.999873052943 0.0 0.0
0.999898496944 0.0 0.0
1.00030502358 0.0 0.0
1.0001450845 0.0 0.0
0.999660064994 0.0 0.0
0.999875245291 0.0 0.0
0.999782784625 0.0 0.0
1.00009361051 0.0 0.0
0.999797014602 0.0 0.0
0.999894995662 0.0 0.0
0.999670869736 0.0 0.0
1.00018626056 0.0 0.0
1.0003080754 0.0 0.0
0.999911140495 0.0 0.0
0.999903855441 0.0 0.0
1.00037749729 0.0 0.0
0.999897665335 0.0 0.0
0.999961509611 0.0 0.0
1.00047029178 0.0 0.0
0.999990894721 0.0 0.0
1.00005046115 0.0 0.0
1.00053199685 0.0 0.0
0.999973775395 0.0 0.0
0.999985435913 0.0 0.0
1.00042988143 0.0 0.0
0.999908355985 0.0 0.0
0.999947264971 0.0 0.0
1.00047565015 0.0 0.0
0.999999030565 0.0 0.0
1.00003481336 0.0 0.0
1.0004219263 0.0 0.0
1.0000099716 0.0 0.0
1.00005869883 0.0 0.0
1.01675460576 0.0 0.0
1.0 0.0 0.0
1.0 0.0 0.0
1.0 0.0 0.0
1.0 0.0 0.0
1.0 0.0 0.0
1.0 0.0 0.0
1.0 0.0 0.0
1.0 0.0 0.0
1.0 0.0 0.0
0.992156877969 8.81409596305e-05 0.0
0.991147748461 3.18981644705e-05 0.0
0.991063267646 -3.99442657638e-05 0.0
0.988408899693 -1.0570081774e-05 0.0
0.989973617166 -6.2969982116e-06 0.0
0.990048381054 1.23874870855e-05 0.0
0.990098184657 2.20641801647e-05 0.0
0.989519197179 1.98024542856e-05 0.0
0.989691204781 -2.88627238863e-08 0.0
0.989679458541 -4.4939099117e-06 0.0
0.989680825893 -8.81494193534e-06 0.0
0.989681911658 -1.40468907229e-06 0.0
0.989679421985 1.98609956935e-06 0.0
0.989677327089 6.04830993754e-07 0.0
0.989691576191 -8.13985599125e-07 0.0
0.987804210654 -1.11973597556e-05 0.0
0.988166179785 -1.92199186376e-05 0.0
0.988158093513 -8.09765684929e-06 0.0
0.988089838493 -3.11016992313e-06 0.0
0.990600434749 -4.58337904058e-06 0.0
0.98815808423 -5.30244152059e-05 0.0
0.988155903645 -7.02703192407e-06 0.0
0.988261732373 6.76816109867e-06 0.0
0.988017830046 5.99081820344e-05 0.0
0.9880410446 4.48326975646e-06 0.0
0.989865524565 3.40469079475e-07 0.0
0.988022844064 1.85981870526e-05 0.0
0.988154349095 1.82311494048e-05 0.0
0.988138107965 -1.29105660339e-05 0.0
0.990626644539 1.12917289074e-05 0.0
0.990144055401 -5.55064507244e-06 0.0
0.994490496231 -5.88276789545e-06 0.0
0.995057779039 3.59589541579e-06 0.0
0.95328482683 -3.74803328534e-06 0.0
0.953770328811 0.0023139294476 0.0
0.998547534149 -7.38653952644e-06 0.0
0.998400528092 -1.02786806704e-05 0.0
0.998549042562 1.21485844228e-05 0.0
0.998444836116 4.8829085315e-05 0.0
0.99836466446 1.75034523062e-05 0.0
0.998662086453 -5.67568362663e-05 0.0
0.99850398055 2.32469774982e-05 0.0
0.998392390099 -1.48513293418e-06 0.0
0.998524983766 2.32054042299e-06 0.0
0.998567616857 2.38314582355e-06 0.0
0.998319338226 5.67530511022e-06 0.0
0.998359220598 -1.57962368912e-06 0.0
0.998373113118 -8.88554141675e-06 0.0
0.998329726559 -1.44811756882e-05 0.0
0.998127750656 -2.64382353573e-06 0.0
0.997940194141 1.97903744997e-06 0.0
0.997951967509 3.60819404444e-06 0.0
0.947652812122 5.6845331805e-05 0.0
0.997947075725 4.50022060695e-06 0.0
0.997944771281 -4.1939376933e-06 0.0
0.997950288426 -5.92640719532e-06 0.0
0.998832400796 4.91405013543e-06 0.0
0.997956123549 -3.88499050665e-06 0.0
0.948014513692 8.56726059315e-06 0.0
0.998740925789 3.05220843232e-05 0.0
0.997964938279 6.9953742179e-06 0.0
0.997915752041 1.80340751292e-05 0.0
0.951873296516 -1.16781358176e-05 0.0
0.997838412324 1.48731796808e-05 0.0
0.952639739009 1.43450684793e-06 0.0
0.953507900356 -6.97230549171e-06 0.0
0.951092950977 -1.01876988898e-05 0.0
0.954090829188 1.20130054014e-05 0.0
0.949340438231 -6.10640003768e-05 0.0
0.951130953297 4.92860091255e-05 0.0
0.951150959455 1.65115017332e-05 0.0
0.951125084707 2.32166068825e-05 0.0
0.95120381622 -1.32846587555e-06 0.0
0.953515284504 -3.11828607892e-06 0.0
0.952532932596 4.8553174913e-06 0.0
0.949554839421 3.64156480457e-06 0.0
0.949606982529 -2.77407658221e-06 0.0
0.949628547161 -7.59399776623e-06 0.0
0.949621310536 -1.40920691724e-05 0.0
0.950189135799 -7.94434597541e-07 0.0
0.950325292851 3.01814796225e-06 0.0
0.950388738732 4.52955556934e-06 0.0
0.950435989498 4.52147744289e-06 0.0
0.950466018866 -3.65468314882e-06 0.0
0.950488252342 -5.76310963545e-06 0.0
0.997801507224 1.32248631138e-06 0.0
0.950511852769 -4.67689586479e-06 0.0
0.9504733717 5.93504278626e-06 0.0
0.950545068217 1.91041824091e-05 0.0
0.95117520566 1.33588779313e-05 0.0
0.998284569564 -7.55112843868e-06 0.0
0.997581126184 -0.000918137440504 0.0
0.998662459587 -1.73452393373e-06 0.0
0.998396596309 -3.19633590638e-06 0.0
0.999305515357 7.37582098029e-06 0.0
0.999301755277 6.79016686379e-07 0.0
0.998971847928 -4.87021615543e-06 0.0
0.94966723408 -2.66209607336e-06 0.0
0.955148069309 -3.30014189584e-06 0.0
0.938874660366 6.35705056402e-06 0.0
0.937272836699 1.93813123164e-06 0.0
0.931031456567 0.000143618766971 0.0
0.924833653833 2.54820302763e-05 0.0
0.998443055652 -5.66449849484e-06 0.0
0.999495837343 -9.65010657925e-06 0.0
0.999541548188 -1.12286909746e-05 0.0
0.999642647455 1.47342271353e-05 0.0
0.998960653347 -2.02779435821e-07 0.0
0.999562532287 -3.43022422151e-05 0.0
0.999525768484 -2.88454125452e-06 0.0
0.998949444064 1.22929834004e-06 0.0
0.998943275369 1.75276220057e-06 0.0
0.999564882794 -5.07845989935e-08 0.0
0.926824170871 -3.00678633932e-05 0.0
0.998939407413 -5.29423427643e-07 0.0
0.99939881469 3.81007086145e-06 0.0
0.998943346687 -5.61391220388e-06 0.0
0.99894967142 -3.35074581469e-06 0.0
0.999693575731 -3.30720777108e-05 0.0
0.998974670049 1.67777351807e-07 0.0
0.998938107943 1.38360310542e-05 0.0
0.999128631032 1.28589105902e-05 0.0
0.770586376119 -7.71613559969e-06 0.0
0.999368107771 -4.47993522818e-07 0.0
0.999092067831 8.2010498815e-06 0.0
0.767304550094 -3.4615797657e-06 0.0
0.78296098386 7.71088621677e-06 0.0
0.999258372421 -4.095410278e-06 0.0
0.772969607043 1.46052718506e-05 0.0
0.999561491487 -1.45664215725e-06 0.0
0.99968761613 -1.97598666243e-05 0.0
0.773024250792 1.33136228516e-05 0.0
0.773083949927 8.84058777891e-07 0.0
0.773057429389 -2.65948771395e-06 0.0
0.773056090291 -6.13088769643e-06 0.0
0.999552113392 8.24967199898e-06 0.0
0.999642228702 4.18494523519e-05 0.0
0.773053357597 -1.00048396397e-06 0.0
0.773036594321 1.30864894226e-06 0.0
0.773035343243 1.37251329155e-07 0.0
0.773111019858 -5.51875450261e-07 0.0
0.761386899869 -8.1681033821e-06 0.0
0.999389654376 1.16556310831e-05 0.0
0.999585844758 6.02699329312e-06 0.0
0.762187281228 -1.39465439271e-05 0.0
0.762227523188 -6.53965738536e-06 0.0
0.768991088195 -1.97095869534e-06 0.0
0.762260373204 -4.59213464975e-07 0.0
0.765205337357 -3.22692313997e-05 0.0
0.764910553486 -6.35338939017e-06 0.0
0.764730828027 4.39914175808e-05 0.0
0.764811283144 4.18985606721e-06 0.0
0.762489947415 6.59878500534e-06 0.0
0.764826791096 1.04561702971e-05 0.0
0.764607042881 1.29409849069e-05 0.0
0.764622886943 -8.56389216738e-06 0.0
0.778877877709 7.44580263137e-06 0.0
0.756862401872 -4.10568333952e-06 0.0
0.748952611001 1.21856781502e-06 0.0
0.999792632864 2.33593764045e-06 0.0
0.999405605827 -6.75468859499e-06 0.0
0.999551745623 -5.74534921093e-06 0.0
0.999558344038 9.6147328061e-06 0.0
0.999821291189 -1.66227672446e-06 0.0
0.999542907651 7.26813829415e-07 0.0
0.951576160125 -4.62657554811e-06 0.0
0.960660535185 3.55454917876e-06 0.0
0.999729934863 -2.93537399236e-06 0.0
1.00405022903 -0.00847931079539 0.0
0.996055981586 -2.73618233343e-06 0.0
0.98987406487 -4.44117289706e-06 0.0
0.999684981904 0.000316428617657 0.0
0.757239953968 -5.00036941576e-06 0.0
0.995408524921 -0.000108554801121 0.0
0.795876070715 0.000291322504148 0.0
0.947151245785 -1.0484850605e-06 0.0
0.999772201795 -2.85912235652e-06 0.0
0.999672455323 -8.54664262766e-06 0.0
0.999879459919 1.10988520161e-06 0.0
0.999686122435 -5.4186633249e-06 0.0
0.956705944843 0.00721580511515 0.0
0.999673381516 -4.7311068921e-06 0.0
0.999875669593 1.40230059578e-06 0.0
0.999642516389 2.38858594224e-06 0.0
0.999868204855 1.76168743772e-06 0.0
0.999864299564 -2.54259686329e-06 0.0
0.999843181775 -3.68399428634e-05 0.0
0.999699463135 -4.0137694391e-06 0.0
0.999890494002 1.30254229009e-05 0.0
0.999714241091 -2.05803359009e-06 0.0
0.999852743479 1.95874575815e-05 0.0
0.999873339556 -4.3269094441e-06 0.0
0.999623733029 9.07687952288e-06 0.0
0.999774379813 2.03227704452e-05 0.0
0.999805930943 -6.73091175885e-06 0.0
0.999661212989 -7.18763138168e-06 0.0
0.999879485458 -2.33721475446e-06 0.0
0.999903777577 1.11217693313e-06 0.0
0.999804534776 9.74691940527e-06 0.0
0.999329896186 6.77819970689e-06 0.0
0.99930866709 3.78068663777e-06 0.0
0.999463197673 -3.86530794066e-06 0.0
0.991341592794 -4.75088599456e-06 0.0
0.797137946169 1.07204312657e-05 0.0
0.796438669456 2.61979229889e-05 0.0
0.795423372602 5.96085863653e-05 0.0
0.796657648518 -3.65757800227e-06 0.0
0.766886003033 8.47836119683e-06 0.0
0.768300460262 9.4630060296e-06 0.0
0.76825550256 2.0040202237e-06 0.0
0.992108587628 9.85457398449e-06 0.0
0.76827430139 -2.74008356232e-06 0.0
0.768259141406 -4.0411251769e-06 0.0
0.768245596893 -1.07870684941e-06 0.0
0.987466158335 5.80164894113e-06 0.0
0.992047330703 8.47475303185e-07 0.0
0.768220466613 3.00321634757e-06 0.0
0.987730374006 -8.02902486246e-06 0.0
0.768184860844 2.87743733415e-06 0.0
0.768141312886 1.66064506564e-06 0.0
0.765687888615 -2.15494626788e-06 0.0
0.76511449806 -8.65265256541e-06 0.0
0.987165692361 1.74316367536e-05 0.0
0.765101766394 -2.56785941192e-06 0.0
0.986909103777 1.75104010914e-05 0.0
0.76391328784 -4.51557641184e-06 0.0
0.765082018175 5.58533743557e-07 0.0
0.98696159789 2.51326314744e-06 0.0
0.762691645393 -7.62842542269e-06 0.0
0.986970761069 -6.48119788314e-06 0.0
0.764515821767 3.0801341239e-06 0.0
0.765170681145 4.18462341226e-06 0.0
0.986969189129 -8.67189927596e-06 0.0
0.763854704388 -1.07583043769e-06 0.0
0.771730082375 3.12458590948e-06 0.0
0.986965863545 -3.54402984141e-06 0.0
0.770493506367 -3.40258807255e-05 0.0
0.986962181403 5.23931582146e-06 0.0
0.986957232191 4.4491067376e-06 0.0
0.765669268817 -3.27721269144e-06 0.0
0.986943408352 3.31965987979e-06 0.0
0.987503207116 -3.46346019674e-06 0.0
0.988818171307 -6.8974612734e-05 0.0
0.763089529026 2.64976320457e-05 0.0
0.763314352435 1.11629556361e-06 0.0
0.988233594125 -1.74938997497e-05 0.0
0.98824491497 -7.70487038723e-06 0.0
0.763039462869 2.29583234291e-05 0.0
0.763126440122 1.06643261745e-05 0.0
0.988223055544 -2.05837975652e-06 0.0
0.762881275634 -7.15322761563e-06 0.0
0.775899750106 6.37035574912e-06 0.0
0.98826901814 7.10696447019e-06 0.0
0.990617897944 1.79783684231e-06 0.0
0.770287239659 -3.74207952718e-06 0.0
0.989141323621 -5.65300351658e-06 0.0
0.988714959036 -4.53699235793e-06 0.0
0.988202706848 -2.0572437121e-06 0.0
0.988221600638 4.29391128047e-05 0.0
0.988220901132 2.10379117861e-05 0.0
0.988190801433 4.7257130225e-05 0.0
0.990916132177 1.26761539704e-05 0.0
0.988214072235 -1.46987899238e-05 0.0
0.990798468426 -8.1003567005e-06 0.0
0.993587901404 1.56282471688e-05 0.0
0.993811351499 4.36061486191e-05 0.0
0.994118252871 5.38391874909e-05 0.0
0.988000940937 -9.70158131679e-06 0.0
0.994171235663 -4.96988471564e-06 0.0
0.992998531801 -6.52417579933e-05 0.0
0.987521661603 -8.80035977093e-06 0.0
0.988040195916 1.69579065431e-05 0.0
0.987515451005 6.26294628589e-05 0.0
0.987545503592 1.87749261491e-05 0.0
0.987570015272 4.35403465778e-06 0.0
0.987546591419 -2.50963107016e-06 0.0
0.757625483809 -6.12269310577e-06 0.0
0.990757334704 1.60642767575e-06 0.0
0.758181999012 -3.07141498869e-06 0.0
0.758210072073 9.28890867699e-06 0.0
0.790066750933 -3.18240161676e-05 0.0
0.987755829471 7.7972383728e-06 0.0
0.758000697397 3.25653661991e-05 0.0
0.757942384751 7.9482630629e-06 0.0
0.98731154567 3.66301085359e-06 0.0
0.987433314613 -4.47993768856e-06 0.0
0.757825096333 -3.67994901093e-06 0.0
0.757814160405 -3.52329699108e-06 0.0
0.987427526497 -1.27598526106e-05 0.0
0.999304961392 7.32535656955e-06 0.0
0.987303599031 -1.66322254601e-05 0.0
0.987188012923 -1.7526492424e-06 0.0
0.771663136627 -1.12057570672e-06 0.0
0.987009748573 2.00654459979e-06 0.0
0.987015059711 4.21602507678e-06 0.0
0.987014327556 4.24284929153e-06 0.0
0.987003831777 -4.95356757351e-06 0.0
0.986994002224 -3.59528861427e-06 0.0
0.986985895348 -1.01543742476e-06 0.0
0.986823825312 1.6721655813e-05 0.0
0.987302607333 -3.23190213942e-06 0.0
0.987125154334 2.39055515046e-05 0.0
0.987157641618 1.10747161299e-05 0.0
0.987370048593 -1.04937770352e-05 0.0
0.999772585207 -1.92278662483e-06 0.0
0.999477049078 1.1455870006e-05 0.0
0.759164186363 4.40377006542e-06 0.0
0.761857516415 6.14314966627e-07 0.0
0.761840920818 -3.9531407418e-06 0.0
0.761834375194 -8.07740798437e-06 0.0
0.761742124192 -8.80813317474e-06 0.0
0.999898042784 6.18935699632e-06 0.0
0.764328190184 -1.4869690034e-06 0.0
0.764556765291 6.38273203456e-07 0.0
0.764588721777 1.6500248309e-06 0.0
0.764621797717 1.44060749459e-06 0.0
0.764650547522 -3.29926375727e-06 0.0
0.764672270839 -2.53050540199e-06 0.0
0.999892807565 -1.30217192209e-06 0.0
0.764699546741 -1.09503075202e-06 0.0
0.764715240451 7.53968497932e-06 0.0
0.764790450364 1.1140256436e-05 0.0
0.76314880833 7.52410320389e-06 0.0
0.999885488723 -3.07807710963e-06 0.0
0.999875473985 -2.6874726488e-06 0.0
0.999813515741 -3.01916876464e-06 0.0
0.999874218042 2.5354940263e-06 0.0
0.999811636342 6.08255231284e-06 0.0
0.9429563081 -7.56215246591e-06 0.0
0.99988202979 2.02590072513e-06 0.0
0.996935185287 0.0228759303988 0.0
1.00000921601 7.02509018862e-06 0.0
0.999365814619 -1.36992113253e-06 0.0
0.999896568997 1.16427885452e-06 0.0
0.983336419169 0.000430745236269 0.0
0.999828050369 -9.53737363188e-07 0.0
0.999713580342 -6.02902741726e-06 0.0