# vtk DataFile Version 2.0
2D Simulation Python
ASCII
DATASET UNSTRUCTURED_GRID
FIELD FieldData 1
NODES 1 2 int
14968 7299

POINTS 14968 double
0.0 1.0 0.0
1.725 1.0 0.0
8.275 1.0 0.0
10.0 1.0 0.0
10.0 0.0 0.0
0.0 0.0 0.0
0.05948275862057954 1.0 0.0
0.1189655172411507 1.0 0.0
0.1784482758617532 1.0 0.0
0.2379310344823185 1.0 0.0
0.2974137931028384 1.0 0.0
0.3568965517233564 1.0 0.0
0.4163793103438745 1.0 0.0
0.475862068964385 1.0 0.0
0.535344827584889 1.0 0.0
0.5948275862053855 1.0 0.0
0.654310344825882 1.0 0.0
0.7137931034463786 1.0 0.0
0.7732758620668752 1.0 0.0
0.8327586206874149 1.0 0.0
0.8922413793081027 1.0 0.0
0.9517241379289384 1.0 0.0
1.011206896549752 1.0 0.0
1.070689655170612 1.0 0.0
1.130172413791474 1.0 0.0
1.189655172412335 1.0 0.0
1.249137931033183 1.0 0.0
1.308620689654105 1.0 0.0
1.368103448274985 1.0 0.0
1.427586206895818 1.0 0.0
1.487068965516628 1.0 0.0
1.546551724137449 1.0 0.0
1.606034482758285 1.0 0.0
1.665517241379139 1.0 0.0
0.02974137931029072 1.0 0.0
0.08922413793086324 1.0 0.0
0.1487068965514534 1.0 0.0
0.208189655172049 1.0 0.0
0.2676724137925698 1.0 0.0
0.3271551724130939 1.0 0.0
0.3866379310336222 1.0 0.0
0.4461206896541293 1.0 0.0
0.5056034482746439 1.0 0.0
0.5650862068951479 1.0 0.0
0.624568965515645 1.0 0.0
0.6840517241361357 1.0 0.0
0.7435344827566197 1.0 0.0
0.8030172413771515 1.0 0.0
0.8624999999976763 1.0 0.0
0.9219827586185091 1.0 0.0
0.9814655172393557 1.0 0.0
1.040948275860181 1.0 0.0
1.100431034481038 1.0 0.0
1.159913793101895 1.0 0.0
1.219396551722753 1.0 0.0
1.278879310343654 1.0 0.0
1.338362068964579 1.0 0.0
1.397844827585388 1.0 0.0
1.457327586206215 1.0 0.0
1.516810344826985 1.0 0.0
1.576293103447828 1.0 0.0
1.635775862068708 1.0 0.0
1.695258620689603 1.0 0.0
1.784545454545345 1.0 0.0
1.844090909090676 1.0 0.0
1.903636363635991 1.0 0.0
1.963181818181336 1.0 0.0
2.022727272726716 1.0 0.0
2.082272727272112 1.0 0.0
2.141818181817408 1.0 0.0
2.201363636362702 1.0 0.0
2.260909090908037 1.0 0.0
2.320454545453433 1.0 0.0
2.379999999998759 1.0 0.0
2.439545454544053 1.0 0.0
2.499090909089358 1.0 0.0
2.558636363634754 1.0 0.0
2.618181818180109 1.0 0.0
2.677727272725404 1.0 0.0
2.737272727270631 1.0 0.0
2.796818181815906 1.0 0.0
2.856363636361191 1.0 0.0
2.915909090906408 1.0 0.0
2.975454545451703 1.0 0.0
3.034999999997049 1.0 0.0
3.094545454542377 1.0 0.0
3.154090909087591 1.0 0.0
3.21363636363288 1.0 0.0
3.273181818178196 1.0 0.0
3.332727272723555 1.0 0.0
3.392272727268849 1.0 0.0
3.451818181814208 1.0 0.0
3.511363636359524 1.0 0.0
3.570909090904812 1.0 0.0
3.630454545450026 1.0 0.0
3.689999999995355 1.0 0.0
3.749545454540702 1.0 0.0
3.809090909085996 1.0 0.0
3.868636363631291 1.0 0.0
3.928181818176585 1.0 0.0
3.987727272721861 1.0 0.0
4.047272727267021 1.0 0.0
4.106818181812208 1.0 0.0
4.166363636357625 1.0 0.0
4.225909090903122 1.0 0.0
4.285454545448432 1.0 0.0
4.34499999999356 1.0 0.0
4.404545454538917 1.0 0.0
4.464090909084414 1.0 0.0
4.523636363629791 1.0 0.0
4.583181818174936 1.0 0.0
4.642727272720208 1.0 0.0
4.702272727265705 1.0 0.0
4.761818181811142 1.0 0.0
4.821363636356348 1.0 0.0
4.880909090901557 1.0 0.0
4.940454545446997 1.0 0.0
4.999999999992493 1.0 0.0
5.059545454538018 1.0 0.0
5.119090909083717 1.0 0.0
5.17863636362933 1.0 0.0
5.238181818174827 1.0 0.0
5.297727272720321 1.0 0.0
5.357272727265989 1.0 0.0
5.416818181811662 1.0 0.0
5.476363636357158 1.0 0.0
5.535909090902654 1.0 0.0
5.595454545448262 1.0 0.0
5.65499999999396 1.0 0.0
5.714545454539491 1.0 0.0
5.774090909085032 1.0 0.0
5.83363636363093 1.0 0.0
5.893181818176673 1.0 0.0
5.952727272722171 1.0 0.0
6.012272727267668 1.0 0.0
6.071818181813491 1.0 0.0
6.131363636359353 1.0 0.0
6.190909090904849 1.0 0.0
6.250454545450346 1.0 0.0
6.309999999996052 1.0 0.0
6.369545454541951 1.0 0.0
6.429090909087529 1.0 0.0
6.488636363633026 1.0 0.0
6.548181818178611 1.0 0.0
6.60772727272451 1.0 0.0
6.667272727270209 1.0 0.0
6.726818181815705 1.0 0.0
6.786363636361202 1.0 0.0
6.845909090907071 1.0 0.0
6.905454545452889 1.0 0.0
6.964999999998385 1.0 0.0
7.024545454543881 1.0 0.0
7.084090909089378 1.0 0.0
7.143636363634876 1.0 0.0
7.20318181818037 1.0 0.0
7.262727272725868 1.0 0.0
7.322272727271365 1.0 0.0
7.381818181816859 1.0 0.0
7.441363636362357 1.0 0.0
7.500909090907854 1.0 0.0
7.560454545453348 1.0 0.0
7.619999999998846 1.0 0.0
7.679545454544343 1.0 0.0
7.739090909089839 1.0 0.0
7.798636363635335 1.0 0.0
7.858181818180832 1.0 0.0
7.917727272726328 1.0 0.0
7.977272727271824 1.0 0.0
8.036818181817441 1.0 0.0
8.09636363636334 1.0 0.0
8.155909090909008 1.0 0.0
8.215454545454504 1.0 0.0
1.754772727272673 1.0 0.0
1.814318181818009 1.0 0.0
1.873863636363333 1.0 0.0
1.933409090908672 1.0 0.0
1.992954545454031 1.0 0.0
2.052499999999414 1.0 0.0
2.112045454544734 1.0 0.0
2.171590909090055 1.0 0.0
2.231136363635354 1.0 0.0
2.290681818180733 1.0 0.0
2.35022727272609 1.0 0.0
2.409772727271409 1.0 0.0
2.469318181816729 1.0 0.0
2.528863636362083 1.0 0.0
2.588409090907435 1.0 0.0
2.647954545452764 1.0 0.0
2.70749999999803 1.0 0.0
2.767045454543256 1.0 0.0
2.826590909088563 1.0 0.0
2.886136363633805 1.0 0.0
2.945681818179043 1.0 0.0
3.005227272724398 1.0 0.0
3.064772727269736 1.0 0.0
3.124318181814993 1.0 0.0
3.183863636360237 1.0 0.0
3.243409090905498 1.0 0.0
3.302954545450869 1.0 0.0
3.362499999996201 1.0 0.0
3.422045454541534 1.0 0.0
3.481590909086889 1.0 0.0
3.541136363632178 1.0 0.0
3.600681818177425 1.0 0.0
3.660227272722711 1.0 0.0
3.719772727268038 1.0 0.0
3.779318181813342 1.0 0.0
3.838863636358643 1.0 0.0
3.898409090903943 1.0 0.0
3.957954545449228 1.0 0.0
4.017499999994459 1.0 0.0
4.077045454539567 1.0 0.0
4.136590909084866 1.0 0.0
4.196136363630398 1.0 0.0
4.255681818175789 1.0 0.0
4.31522727272101 1.0 0.0
4.374772727266199 1.0 0.0
4.434318181811665 1.0 0.0
4.493863636357126 1.0 0.0
4.55340909090234 1.0 0.0
4.612954545447561 1.0 0.0
4.672499999992919 1.0 0.0
4.732045454538429 1.0 0.0
4.791590909083769 1.0 0.0
4.851136363628941 1.0 0.0
4.910681818174305 1.0 0.0
4.970227272719745 1.0 0.0
5.029772727265215 1.0 0.0
5.089318181810858 1.0 0.0
5.148863636356518 1.0 0.0
5.208409090902078 1.0 0.0
5.267954545447563 1.0 0.0
5.32749999999314 1.0 0.0
5.387045454538812 1.0 0.0
5.446590909084395 1.0 0.0
5.506136363629908 1.0 0.0
5.565681818175434 1.0 0.0
5.625227272721118 1.0 0.0
5.68477272726672 1.0 0.0
5.744318181812282 1.0 0.0
5.803863636357981 1.0 0.0
5.863409090903753 1.0 0.0
5.922954545449448 1.0 0.0
5.98249999999492 1.0 0.0
6.042045454540572 1.0 0.0
6.10159090908641 1.0 0.0
6.161136363632073 1.0 0.0
6.220681818177569 1.0 0.0
6.280227272723183 1.0 0.0
6.339772727268974 1.0 0.0
6.399318181814714 1.0 0.0
6.45886363636027 1.0 0.0
6.518409090905834 1.0 0.0
6.577954545451583 1.0 0.0
6.637499999997363 1.0 0.0
6.697045454542931 1.0 0.0
6.756590909088454 1.0 0.0
6.8161363636342 1.0 0.0
6.875681818179999 1.0 0.0
6.935227272725616 1.0 0.0
6.994772727271133 1.0 0.0
7.054318181816615 1.0 0.0
7.113863636362105 1.0 0.0
7.173409090907585 1.0 0.0
7.232954545453119 1.0 0.0
7.292499999998594 1.0 0.0
7.352045454544166 1.0 0.0
7.411590909089607 1.0 0.0
7.471136363635079 1.0 0.0
7.530681818180621 1.0 0.0
7.590227272726104 1.0 0.0
7.649772727271595 1.0 0.0
7.709318181817098 1.0 0.0
7.768863636362564 1.0 0.0
7.828409090908048 1.0 0.0
7.88795454545358 1.0 0.0
7.947499999999069 1.0 0.0
8.007045454544631 1.0 0.0
8.066590909090369 1.0 0.0
8.126136363636165 1.0 0.0
8.185681818181749 1.0 0.0
8.245227272727199 1.0 0.0
8.334482758620055 1.0 0.0
8.393965517240051 1.0 0.0
8.453448275859904 1.0 0.0
8.51293103448045 1.0 0.0
8.572413793100301 1.0 0.0
8.631896551720153 1.0 0.0
8.6913793103407 1.0 0.0
8.750862068961245 1.0 0.0
8.810344827581792 1.0 0.0
8.869827586202339 1.0 0.0
8.929310344822884 1.0 0.0
8.988793103443431 1.0 0.0
9.048275862063978 1.0 0.0
9.107758620684523 1.0 0.0
9.16724137930507 1.0 0.0
9.226724137925617 1.0 0.0
9.286206896546162 1.0 0.0
9.345689655167401 1.0 0.0
9.405172413788595 1.0 0.0
9.46465517240963 1.0 0.0
9.524137931030667 1.0 0.0
9.583620689651704 1.0 0.0
9.643103448272907 1.0 0.0
9.702586206894148 1.0 0.0
9.762068965515388 1.0 0.0
9.821551724136627 1.0 0.0
9.881034482757867 1.0 0.0
9.940517241378963 1.0 0.0
8.304741379310085 1.0 0.0
8.364224137930028 1.0 0.0
8.423706896549978 1.0 0.0
8.48318965517026 1.0 0.0
8.542672413790376 1.0 0.0
8.602155172410113 1.0 0.0
8.661637931030402 1.0 0.0
8.721120689651029 1.0 0.0
8.78060344827138 1.0 0.0
8.84008620689213 1.0 0.0
8.899568965512502 1.0 0.0
8.959051724133055 1.0 0.0
9.018534482753648 1.0 0.0
9.078017241374363 1.0 0.0
9.137499999994688 1.0 0.0
9.196982758615343 1.0 0.0
9.256465517235805 1.0 0.0
9.315948275856895 1.0 0.0
9.375431034477998 1.0 0.0
9.434913793099138 1.0 0.0
9.494396551720149 1.0 0.0
9.55387931034146 1.0 0.0
9.613362068962203 1.0 0.0
9.672844827583809 1.0 0.0
9.73232758620488 1.0 0.0
9.791810344826095 1.0 0.0
9.851293103447228 1.0 0.0
9.910775862068462 1.0 0.0
9.970258620689481 1.0 0.0
10.0 0.9411764705879904 0.0
10.0 0.882352941175982 0.0
10.0 0.8235294117645425 0.0
10.0 0.764705882353186 0.0
10.0 0.7058823529418295 0.0
10.0 0.6470588235304731 0.0
10.0 0.5882352941191167 0.0
10.0 0.5294117647077601 0.0
10.0 0.4705882352960771 0.0
10.0 0.4117647058840672 0.0
10.0 0.3529411764720576 0.0
10.0 0.2941176470600479 0.0
10.0 0.2352941176480381 0.0
10.0 0.1764705882360285 0.0
10.0 0.1176470588240187 0.0
10.0 0.05882352941200908 0.0
10.0 0.9705882352939621 0.0
10.0 0.9117647058820033 0.0
10.0 0.8529411764702793 0.0
10.0 0.7941176470588772 0.0
10.0 0.7352941176474532 0.0
10.0 0.6764705882361493 0.0
10.0 0.6176470588248275 0.0
10.0 0.5588235294134586 0.0
10.0 0.5000000000020175 0.0
10.0 0.4411764705900721 0.0
10.0 0.3823529411780624 0.0
10.0 0.3235294117660528 0.0
10.0 0.264705882354043 0.0
10.0 0.2058823529420333 0.0
10.0 0.1470588235300236 0.0
10.0 0.0882352941180139 0.0
10.0 0.02941176470600448 0.0
9.940119760479043 0.0 0.0
9.880239520958083 0.0 0.0
9.820359281437126 0.0 0.0
9.760479041916167 0.0 0.0
9.70059880239521 0.0 0.0
9.640718562874252 0.0 0.0
9.580838323353293 0.0 0.0
[...]
POINT_DATA 14968
VECTORS vector double
0.0 0.0 0.0
0.0 0.0 0.0
0.0 0.0 0.0
0.0 0.0 0.0
1.21474033359 0.0 0.0
1.5 0.0 0.0
0.0 0.0 0.0
0.0 0.0 0.0
0.0 0.0 0.0
0.0 0.0 0.0
0.0 0.0 0.0
0.0 0.0 0.0
0.0 0.0 0.0
0.0 0.0 0.0
0.0 0.0 0.0
0.0 0.0 0.0
0.0 0.0 0.0
0.0 0.0 0.0
0.0 0.0 0.0
0.0 0.0 0.0
0.0 0.0 0.0
0.0 0.0 0.0
0.0 0.0 0.0
0.0 0.0 0.0
0.0 0.0 0.0
0.0 0.0 0.0
0.0 0.0 0.0
0.0 0.0 0.0
0.0 0.0 0.0
0.0 0.0 0.0
0.0 0.0 0.0
0.0 0.0 0.0
0.0 0.0 0.0
0.0 0.0 0.0
0.0 0.0 0.0
0.0 0.0 0.0
0.0 0.0 0.0
0.0 0.0 0.0
0.0 0.0 0.0
0.0 0.0 0.0
0.0 0.0 0.0
0.0 0.0 0.0
0.0 0.0 0.0
0.0 0.0 0.0
0.0 0.0 0.0
0.0 0.0 0.0
0.0 0.0 0.0
0.0 0.0 0.0
0.0 0.0 0.0
0.0 0.0 0.0
0.0 0.0 0.0
0.0 0.0 0.0
0.0 0.0 0.0
0.0 0.0 0.0
0.0 0.0 0.0
0.0 0.0 0.0
0.0 0.0 0.0
0.0 0.0 0.0
0.0 0.0 0.0
0.0 0.0 0.0
0.0 0.0 0.0
0.0 0.0 0.0
0.0 0.0 0.0
0.0 0.0 0.0
0.0 0.0 0.0
0.0 0.0 0.0
0.0 0.0 0.0
0.0 0.0 0.0
0.0 0.0 0.0
0.0 0.0 0.0
0.0 0.0 0.0
0.0 0.0 0.0
0.0 0.0 0.0
0.0 0.0 0.0
0.0 0.0 0.0
0.0 0.0 0.0
0.0 0.0 0.0
0.0 0.0 0.0
0.0 0.0 0.0
0.0 0.0 0.0
0.0 0.0 0.0
0.0 0.0 0.0
0.0 0.0 0.0
0.0 0.0 0.0
0.0 0.0 0.0
0.0 0.0 0.0
0.0 0.0 0.0
0.0 0.0 0.0
0.0 0.0 0.0
0.0 0.0 0.0
0.0 0.0 0.0
0.0 0.0 0.0
0.0 0.0 0.0
0.0 0.0 0.0
0.0 0.0 0.0
0.0 0.0 0.0
0.0 0.0 0.0
0.0 0.0 0.0
0.0 0.0 0.0
0.0 0.0 0.0
0.0 0.0 0.0
0.0 0.0 0.0
0.0 0.0 0.0
0.0 0.0 0.0
0.0 0.0 0.0
0.0 0.0 0.0
0.0 0.0 0.0
0.0 0.0 0.0
0.0 0.0 0.0
0.0 0.0 0.0
0.0 0.0 0.0
0.0 0.0 0.0
0.0 0.0 0.0
0.0 0.0 0.0
0.0 0.0 0.0
0.0 0.0 0.0
0.0 0.0 0.0
0.0 0.0 0.0
0.0 0.0 0.0
0.0 0.0 0.0
0.0 0.0 0.0
0.0 0.0 0.0
0.0 0.0 0.0
0.0 0.0 0.0
0.0 0.0 0.0
0.0 0.0 0.0
0.0 0.0 0.0
0.0 0.0 0.0
0.0 0.0 0.0
0.0 0.0 0.0
0.0 0.0 0.0
0.0 0.0 0.0
0.0 0.0 0.0
0.0 0.0 0.0
0.0 0.0 0.0
0.0 0.0 0.0
0.0 0.0 0.0
0.0 0.0 0.0
0.0 0.0 0.0
0.0 0.0 0.0
0.0 0.0 0.0
0.0 0.0 0.0
0.0 0.0 0.0
0.0 0.0 0.0
0.0 0.0 0.0
0.0 0.0 0.0
0.0 0.0 0.0
0.0 0.0 0.0
0.0 0.0 0.0
0.0 0.0 0.0
0.0 0.0 0.0
0.0 0.0 0.0
0.0 0.0 0.0
0.0 0.0 0.0
0.0 0.0 0.0
0.0 0.0 0.0
0.0 0.0 0.0
0.0 0.0 0.0
0.0 0.0 0.0
0.0 0.0 0.0
0.0 0.0 0.0
0.0 0.0 0.0
0.0 0.0 0.0
0.0 0.0 0.0
0.0 0.0 0.0
0.0 0.0 0.0
0.0 0.0 0.0
0.0 0.0 0.0
0.0 0.0 0.0
0.0 0.0 0.0
0.0 0.0 0.0
0.0 0.0 0.0
0.0 0.0 0.0
0.0 0.0 0.0
0.0 0.0 0.0
0.0 0.0 0.0
0.0 0.0 0.0
0.0 0.0 0.0
0.0 0.0 0.0
0.0 0.0 0.0
0.0 0.0 0.0
0.0 0.0 0.0
0.0 0.0 0.0
0.0 0.0 0.0
0.0 0.0 0.0
0.0 0.0 0.0
0.0 0.0 0.0
0.0 0.0 0.0
0.0 0.0 0.0
0.0 0.0 0.0
0.0 0.0 0.0
0.0 0.0 0.0
0.0 0.0 0.0
0.0 0.0 0.0
0.0 0.0 0.0
0.0 0.0 0.0
0.0 0.0 0.0
0.0 0.0 0.0
0.0 0.0 0.0
0.0 0.0 0.0
0.0 0.0 0.0
0.0 0.0 0.0
0.0 0.0 0.0
0.0 0.0 0.0
0.0 0.0 0.0
0.0 0.0 0.0
0.0 0.0 0.0
0.0 0.0 0.0
0.0 0.0 0.0
0.0 0.0 0.0
0.0 0.0 0.0
0.0 0.0 0.0
0.0 0.0 0.0
0.0 0.0 0.0
0.0 0.0 0.0
0.0 0.0 0.0
0.0 0.0 0.0
0.0 0.0 0.0
0.0 0.0 0.0
0.0 0.0 0.0
0.0 0.0 0.0
0.0 0.0 0.0
0.0 0.0 0.0
0.0 0.0 0.0
0.0 0.0 0.0
0.0 0.0 0.0
0.0 0.0 0.0
0.0 0.0 0.0
0.0 0.0 0.0
0.0 0.0 0.0
0.0 0.0 0.0
0.0 0.0 0.0
0.0 0.0 0.0
0.0 0.0 0.0
0.0 0.0 0.0
0.0 0.0 0.0
0.0 0.0 0.0
0.0 0.0 0.0
0.0 0.0 0.0
0.0 0.0 0.0
0.0 0.0 0.0
0.0 0.0 0.0
0.0 0.0 0.0
0.0 0.0 0.0
0.0 0.0 0.0
0.0 0.0 0.0
0.0 0.0 0.0
0.0 0.0 0.0
0.0 0.0 0.0
0.0 0.0 0.0
0.0 0.0 0.0
0.0 0.0 0.0
0.0 0.0 0.0
0.0 0.0 0.0
0.0 0.0 0.0
0.0 0.0 0.0
0.0 0.0 0.0
0.0 0.0 0.0
0.0 0.0 0.0
0.0 0.0 0.0
0.0 0.0 0.0
0.0 0.0 0.0
0.0 0.0 0.0
0.0 0.0 0.0
0.0 0.0 0.0
0.0 0.0 0.0
0.0 0.0 0.0
0.0 0.0 0.0
0.0 0.0 0.0
0.0 0.0 0.0
0.0 0.0 0.0
0.0 0.0 0.0
0.0 0.0 0.0
0.0 0.0 0.0
0.0 0.0 0.0
0.0 0.0 0.0
0.0 0.0 0.0
0.0 0.0 0.0
0.0 0.0 0.0
0.0 0.0 0.0
0.0 0.0 0.0
0.0 0.0 0.0
0.0 0.0 0.0
0.0 0.0 0.0
0.0 0.0 0.0
0.0 0.0 0.0
0.0 0.0 0.0
0.0 0.0 0.0
0.0 0.0 0.0
0.0 0.0 0.0
0.0 0.0 0.0
0.0 0.0 0.0
0.0 0.0 0.0
0.0 0.0 0.0
0.0 0.0 0.0
0.0 0.0 0.0
0.0 0.0 0.0
0.0 0.0 0.0
0.0 0.0 0.0
0.0 0.0 0.0
0.0 0.0 0.0
0.0 0.0 0.0
0.0 0.0 0.0
0.0 0.0 0.0
0.0 0.0 0.0
0.0 0.0 0.0
0.0 0.0 0.0
0.0 0.0 0.0
0.0 0.0 0.0
0.0 0.0 0.0
0.0 0.0 0.0
0.0 0.0 0.0
0.0 0.0 0.0
0.0 0.0 0.0
0.0 0.0 0.0
0.0 0.0 0.0
0.0 0.0 0.0
0.0 0.0 0.0
0.0 0.0 0.0
0.0 0.0 0.0
0.0 0.0 0.0
0.0 0.0 0.0
0.0 0.0 0.0
0.0 0.0 0.0
0.0 0.0 0.0
0.0 0.0 0.0
0.0 0.0 0.0
0.0 0.0 0.0
0.0 0.0 0.0
0.0 0.0 0.0
0.0 0.0 0.0
0.0 0.0 0.0
0.0 0.0 0.0
0.0 0.0 0.0
0.0 0.0 0.0
0.0 0.0 0.0
0.0 0.0 0.0
0.0 0.0 0.0
0.0 0.0 0.0
0.198334262362 1.10185717801e-05 0.0
0.380167933296 0.000114071947152 0.0
0.547322629793 -0.000122028818753 0.0
0.698147243307 5.17584621214e-05 0.0
0.83518202072 -0.000113415309228 0.0
0.960989145389 -3.14187450443e-05 0.0
1.0635780363 -2.41280343371e-05 0.0
1.15539990482 4.67649068725e-05 0.0
1.23131119628 -0.000131759319632 0.0
1.29110238553 0.000112953781172 0.0
1.33380049106 -9.77256758987e-05 0.0
1.3593639638 0.000113864468906 0.0
1.36728629113 5.22938165195e-05 0.0
1.35639894361 -9.96460132259e-05 0.0
1.32749833662 -4.24548961693e-05 0.0
1.28078560477 -2.16620582135e-05 0.0
0.0996383815059 -3.90399928584e-05 0.0
0.289545633755 -2.25904158985e-05 0.0
0.463215764204 -5.34883936762e-05 0.0
0.622969733053 -7.30411766362e-05 0.0
0.766931926885 3.05834262883e-05 0.0
0.897063490496 -2.37265102285e-05 0.0
1.01108572661 0.000104125982019 0.0
1.10990072716 -2.2533992232e-06 0.0
1.19323239515 2.37969414615e-05 0.0
1.26185536146 2.50066542587e-05 0.0
1.31263200988 3.56244831689e-05 0.0
1.34770886441 1.50718072488e-05 0.0
1.36416076546 -9.8368599109e-06 0.0
1.36305021231 3.57518797622e-05 0.0
1.34373437217 -6.29817170007e-05 0.0
1.3061573859 6.01416190442e-05 0.0
1.25037898066 -4.07631178543e-05 0.0
1.21536503861 0.0 0.0
1.21663480033 0.0 0.0
1.21654715987 0.0 0.0
1.21558335052 0.0 0.0
1.21411997794 0.0 0.0
1.21177565245 0.0 0.0
1.2134559161 0.0 0.0
1.21173326639 0.0 0.0
1.21894891858 0.0 0.0
1.21885224989 0.0 0.0
1.218523979 0.0 0.0
1.22252763902 0.0 0.0
1.22223214734 0.0 0.0
1.22068975476 0.0 0.0
1.22091243134 0.0 0.0
1.2211411895 0.0 0.0
1.21922460141 0.0 0.0
1.21945792385 0.0 0.0
1.21877329851 0.0 0.0
1.21851646889 0.0 0.0
1.21900778426 0.0 0.0
1.21848124678 0.0 0.0
1.2158858028 0.0 0.0
1.21639148048 0.0 0.0
1.21676167657 0.0 0.0
1.21715632677 0.0 0.0
1.21882243662 0.0 0.0
1.22014955604 0.0 0.0
1.21837029335 0.0 0.0
1.21799869002 0.0 0.0
1.21779748058 0.0 0.0
1.21641672418 0.0 0.0
1.2144142451 0.0 0.0
1.21757904487 0.0 0.0
1.21612798983 0.0 0.0
1.22216379787 0.0 0.0
1.22225838204 0.0 0.0
1.22095393559 0.0 0.0
1.22101532071 0.0 0.0
1.22134566104 0.0 0.0
1.21914301456 0.0 0.0
1.2164589467 0.0 0.0
1.22046589375 0.0 0.0
1.21896100012 0.0 0.0
1.22516696731 0.0 0.0
1.22476908128 0.0 0.0
1.22240414658 0.0 0.0
1.22219112204 0.0 0.0
1.22247154069 0.0 0.0
1.21998749444 0.0 0.0
1.21695587257 0.0 0.0
1.22153665441 0.0 0.0
1.21996012148 0.0 0.0
1.22743582211 0.0 0.0
1.22766746455 0.0 0.0
1.22594893702 0.0 0.0
1.22610843422 0.0 0.0
1.22675116373 0.0 0.0
1.22420517434 0.0 0.0
1.22098248192 0.0 0.0
1.22696243851 0.0 0.0
1.22568844154 0.0 0.0
1.23562562706 0.0 0.0
1.23698084539 0.0 0.0
1.23583337718 0.0 0.0
1.23687139097 0.0 0.0
1.24008773377 0.0 0.0
1.23848567102 0.0 0.0
1.24000577508 0.0 0.0
1.24215197679 0.0 0.0
1.24279838643 0.0 0.0
1.23814336797 0.0 0.0
1.23644321838 0.0 0.0
1.24495374283 0.0 0.0
1.2432595311 0.0 0.0
1.24697055787 0.0 0.0
1.25182834522 0.0 0.0
1.25874025753 0.0 0.0
1.26515060286 0.0 0.0
1.2636018934 0.0 0.0
1.26625162351 0.0 0.0
1.27637307963 0.0 0.0
1.28324779794 0.0 0.0
1.28565924846 0.0 0.0
1.28584180512 0.0 0.0
1.30027718379 0.0 0.0
1.30877672367 0.0 0.0
1.3068520195 0.0 0.0
1.3062758784 0.0 0.0
1.31049297882 0.0 0.0
1.31593704323 0.0 0.0
1.31958613469 0.0 0.0
1.32166773117 0.0 0.0
1.32915037847 0.0 0.0
1.33442517085 0.0 0.0
1.33121858067 0.0 0.0
1.34983819823 0.0 0.0
1.35224134634 0.0 0.0
1.37423177757 0.0 0.0
1.38089471181 0.0 0.0
1.3820422752 0.0 0.0
1.38807271187 0.0 0.0
1.39387524784 0.0 0.0
1.39442525213 0.0 0.0
1.390194161 0.0 0.0
1.4131330322 0.0 0.0
1.41843519887 0.0 0.0
1.43977508908 0.0 0.0
1.44671073888 0.0 0.0
1.4485238541 0.0 0.0
1.45395247892 0.0 0.0
1.45912711742 0.0 0.0
1.46016285016 0.0 0.0
1.4573626453 0.0 0.0
1.47539643226 0.0 0.0
1.48008961611 0.0 0.0
1.49500975452 0.0 0.0
1.50005050576 0.0 0.0
1.50166877215 0.0 0.0
1.50546969852 0.0 0.0
1.50903087037 0.0 0.0
1.5096324669 0.0 0.0
1.5080108211 0.0 0.0
1.51741702135 0.0 0.0
1.51991727025 0.0 0.0
1.52685696712 0.0 0.0
1.52912637449 0.0 0.0
1.52977869734 0.0 0.0
1.53110878344 0.0 0.0
1.53211773342 0.0 0.0
1.53246451644 0.0 0.0
1.53166308394 0.0 0.0
1.53453610507 0.0 0.0
1.53503073244 0.0 0.0
1.53630893033 0.0 0.0
1.53642274394 0.0 0.0
1.53611856149 0.0 0.0
1.5358567187 0.0 0.0
1.53551626979 0.0 0.0
1.53472176511 0.0 0.0
1.53412004122 0.0 0.0
1.53350804151 0.0 0.0
1.53289412633 0.0 0.0
1.53218383636 0.0 0.0
1.5315663253 0.0 0.0
1.5306570318 0.0 0.0
1.52976739106 0.0 0.0
1.52888817539 0.0 0.0
1.52811252301 0.0 0.0
1.5270296708 0.0 0.0
1.52610028391 0.0 0.0
1.5248575597 0.0 0.0
1.52377340271 0.0 0.0
1.52269591612 0.0 0.0
1.52141615998 0.0 0.0
1.51970524564 0.0 0.0
1.51859905819 0.0 0.0
1.51745608229 0.0 0.0
1.51541518215 0.0 0.0
1.51424041845 0.0 0.0
1.51243738366 0.0 0.0
1.51129675469 0.0 0.0
1.50977700095 0.0 0.0
1.50811943701 0.0 0.0
1.50628415576 0.0 0.0
1.50416038683 0.0 0.0
1.21702054232 0.0 0.0
1.2171786044 0.0 0.0
1.21852480519 0.0 0.0
1.21706601231 0.0 0.0
1.21655230527 0.0 0.0
1.21438871816 0.0 0.0
1.21318443971 0.0 0.0
1.21436659625 0.0 0.0
1.21389210055 0.0 0.0
1.22103142095 0.0 0.0
1.21962984651 0.0 0.0
1.22121495046 0.0 0.0
1.22348740128 0.0 0.0
1.22320137245 0.0 0.0
1.22118860222 0.0 0.0
1.22293442076 0.0 0.0
1.22156918621 0.0 0.0
1.22006475172 0.0 0.0
1.21945481312 0.0 0.0
1.22066552274 0.0 0.0
1.21944608884 0.0 0.0
1.22063592742 0.0 0.0
1.21849261703 0.0 0.0
1.21685011654 0.0 0.0
1.21743352114 0.0 0.0
1.21923860737 0.0 0.0
1.21872008171 0.0 0.0
1.2212761952 0.0 0.0
1.22082296691 0.0 0.0
1.21876061601 0.0 0.0
1.21987093402 0.0 0.0
1.2183624219 0.0 0.0
1.2158500672 0.0 0.0
1.2170740081 0.0 0.0
1.21784558241 0.0 0.0
1.21949380344 0.0 0.0
1.2233416356 0.0 0.0
1.22351256305 0.0 0.0
1.22156135286 0.0 0.0
1.22316031443 0.0 0.0
1.22192009733 0.0 0.0
1.2178656726 0.0 0.0
1.21962300463 0.0 0.0
1.22102794539 0.0 0.0
1.22286722648 0.0 0.0
1.22654252867 0.0 0.0
1.2253432939 0.0 0.0
1.22290902234 0.0 0.0
1.2245524423 0.0 0.0
1.22312914072 0.0 0.0
1.21857168666 0.0 0.0
1.22055041397 0.0 0.0
1.22225231114 0.0 0.0
1.22464532443 0.0 0.0
1.22938535032 0.0 0.0
1.2290794805 0.0 0.0
1.22687904843 0.0 0.0
1.22903093854 0.0 0.0
1.22773677337 0.0 0.0
1.22273523446 0.0 0.0
1.22550399973 0.0 0.0
1.22813755171 0.0 0.0
1.23168579943 0.0 0.0
1.23863446833 0.0 0.0
1.23929420623 0.0 0.0
1.23759115119 0.0 0.0
1.24142607373 0.0 0.0
1.24269956579 0.0 0.0
1.24000331379 0.0 0.0
1.24288827188 0.0 0.0
1.24570006965 0.0 0.0
1.24289120765 0.0 0.0
1.23880855762 0.0 0.0
1.24208577798 0.0 0.0
1.24728067985 0.0 0.0
1.24577399611 0.0 0.0
1.25491733981 0.0 0.0
1.25713916302 0.0 0.0
1.26621670973 0.0 0.0
1.26543335104 0.0 0.0
1.27008680214 0.0 0.0
1.2734893534 0.0 0.0
1.28559925248 0.0 0.0
1.28755962869 0.0 0.0
1.28724224999 0.0 0.0
1.29610059184 0.0 0.0
1.30954930012 0.0 0.0
1.31215743278 0.0 0.0
1.30900091786 0.0 0.0
1.30945490727 0.0 0.0
1.31989986106 0.0 0.0
1.32129855346 0.0 0.0
1.32716183382 0.0 0.0
1.32680643458 0.0 0.0
1.3352970035 0.0 0.0
1.33443107599 0.0 0.0
1.34405157983 0.0 0.0
1.35386610726 0.0 0.0
1.36503526275 0.0 0.0
1.38248241734 0.0 0.0
1.38644502955 0.0 0.0
1.38712163535 0.0 0.0
1.39647548148 0.0 0.0
1.39812395655 0.0 0.0
1.39284178564 0.0 0.0
1.40376509488 0.0 0.0
1.41916293127 0.0 0.0
1.43048626582 0.0 0.0
1.44736803881 0.0 0.0
1.45158933496 0.0 0.0
1.4528055793 0.0 0.0
1.46063813834 0.0 0.0
1.46251161959 0.0 0.0
1.45905580744 0.0 0.0
1.46757740987 0.0 0.0
1.48027363766 0.0 0.0
1.48842732232 0.0 0.0
1.5000979683 0.0 0.0
1.50321674458 0.0 0.0
1.50436794858 0.0 0.0
1.5093829022 0.0 0.0
1.51087525763 0.0 0.0
1.50888060407 0.0 0.0
1.51330160236 0.0 0.0
1.51997646558 0.0 0.0
1.52389041556 0.0 0.0
1.52918175394 0.0 0.0
1.53046704304 0.0 0.0
1.53085404868 0.0 0.0
1.53262531138 0.0 0.0
1.53288302014 0.0 0.0
1.53229436427 0.0 0.0
1.53351152133 0.0 0.0
1.53529414634 0.0 0.0
1.53605351378 0.0 0.0
1.53688370751 0.0 0.0
1.53687772238 0.0 0.0
1.53631021941 0.0 0.0
1.53624527705 0.0 0.0
1.53552501723 0.0 0.0
1.53459400991 0.0 0.0
1.53413177436 0.0 0.0
1.53334047171 0.0 0.0
1.53267511314 0.0 0.0
1.53211602005 0.0 0.0
1.53139976377 0.0 0.0
1.5303397618 0.0 0.0
1.52960345917 0.0 0.0
1.52860997769 0.0 0.0
1.52769186568 0.0 0.0
1.52686954741 0.0 0.0
1.52587316706 0.0 0.0
1.52450523647 0.0 0.0
1.5237101974 0.0 0.0
1.52228394137 0.0 0.0
1.52057790466 0.0 0.0
1.51938937654 0.0 0.0
1.51840077383 0.0 0.0
1.51632577825 0.0 0.0
1.51515920171 0.0 0.0
1.51336501341 0.0 0.0
1.51229467238 0.0 0.0
1.51100410168 0.0 0.0
1.50918737838 0.0 0.0
1.50754803834 0.0 0.0
1.50537450937 0.0 0.0
1.50348854901 0.0 0.0
1.49480968919 0.0 0.0
1.4792387522 0.0 0.0
1.45328719816 0.0 0.0
1.41695501795 0.0 0.0
1.37024221613 0.0 0.0
1.31314878814 0.0 0.0
1.24567473854 0.0 0.0
1.16782006733 0.0 0.0
1.07958477439 0.0 0.0
0.980968858317 0.0 0.0
0.871972318298 0.0 0.0
0.752595155703 0.0 0.0
0.622837370077 0.0 0.0
0.482698961877 0.0 0.0
0.332179930644 0.0 0.0
0.171280276837 0.0 0.0
1.49870242001 0.0 0.0
1.4883217984 0.0 0.0
1.46756055516 0.0 0.0
1.43641868576 0.0 0.0
1.39489619474 0.0 0.0
1.34299307756 0.0 0.0
1.28070934332 0.0 0.0
1.20804498292 0.0 0.0
1.1250000009 0.0 0.0
1.03157439246 0.0 0.0
0.927768166015 0.0 0.0
0.813581314708 0.0 0.0
0.689013840826 0.0 0.0
0.554065743913 0.0 0.0
0.408737024425 0.0 0.0
0.253027681449 0.0 0.0
0.0869377162634 0.0 0.0
1.18595813863 0.000617543797153 0.0
1.11452047573 0.0034913601532 0.0
1.18221823042 0.00115410090762 0.0
1.11176370974 -0.00130798870762 0.0
1.18440452786 0.00288966378848 0.0
1.11472564829 -0.000203891292096 0.0
1.10856557465 0.000335281167575 0.0
1.17645817512 0.00413460658274 0.0
1.1263131531 0.00407330717354 0.0
1.18894592715 0.00340866472466 0.0
1.12864544289 0.00550830236203 0.0
1.18409158631 0.00325706211648 0.0
1.13495420955 0.00546294072136 0.0
1.17791154396 0.00478146772177 0.0
1.14247755049 0.00577563725125 0.0
1.16346573069 0.00630973673367 0.0
1.14641647824 0.00565519967677 0.0
1.11614666474 0.0059499924534 0.0
0.905790953876 5.36021730147e-05 0.0
0.823348494107 0.00092345901015 0.0
1.34820792428 0.00107666001914 0.0
1.33745170517 -0.000751464848282 0.0
0.893823200162 0.00102696600262 0.0
0.812536145292 -0.000191828945216 0.0
1.34651514368 0.00866459385229 0.0
0.890430367392 0.00231169798653 0.0
0.812846394135 -0.000369363035488 0.0
0.821021306646 0.00175590008837 0.0
0.890100516193 0.00226442166905 0.0
1.35614730684 0.00717892635554 0.0
1.3482604467 0.00840275284668 0.0
0.817754248774 0.00363523488955 0.0
0.876381098354 0.00145726735069 0.0
0.826929041074 0.00313914637325 0.0
0.873871175248 0.00160790394594 0.0
0.834672762497 0.00283286881743 0.0
0.853203709497 0.00271166250024 0.0
0.828995751858 0.00260834120203 0.0
1.36464680359 0.00498270810121 0.0
1.34020303413 0.00701893920709 0.0
1.36387250986 0.00372910101241 0.0
1.33826447349 0.00538027716568 0.0
1.33985254424 0.00196033845952 0.0
1.36092686039 0.00396143466554 0.0
1.35259806509 0.00358425466384 0.0
1.33365342687 -0.000425640614352 0.0
1.34355405711 -0.00117843673563 0.0
1.35382365683 0.00175517446796 0.0
1.36744973749 0.00912871175206 0.0
1.3607954237 0.00892573404821 0.0
0.797251169975 0.00306106102162 0.0
0.789780080627 0.00264627287668 0.0
0.746945372345 0.00397075603799 0.0
0.827261602692 9.58214371133e-05 0.0
1.35646397109 0.000774413123576 0.0
1.35824360114 0.000860951746474 0.0
0.732656420689 5.19712713733e-05 0.0
0.656167121536 -0.00068219824448 0.0
0.712288936681 0.00115380599925 0.0
0.639129889191 5.96414980612e-05 0.0
1.40508657322 0.00992515288154 0.0
1.40144650513 0.00870291920904 0.0
1.39729363107 0.00600042471887 0.0
1.41301201806 0.00910039455017 0.0
0.662559540321 0.000178162482966 0.0
0.730406231732 0.00168659375201 0.0
0.665388133744 0.00242011148317 0.0
0.72281596413 0.00106625821771 0.0
0.671203071007 0.00244544874511 0.0
0.718220698522 0.000665867436121 0.0
0.677634259038 0.00194283031736 0.0
0.713758789944 0.00133110527605 0.0
0.684571759763 0.0017719127157 0.0
1.40617681313 0.00753988374117 0.0
1.39721296114 0.0066807446391 0.0
1.39165940312 0.00400445545566 0.0
1.39642672928 0.00370155189384 0.0
1.38604702844 0.0033129705484 0.0
0.691021348514 0.002030878829 0.0
0.675895628351 0.00165202585724 0.0
1.39156673653 0.000423592603182 0.0
1.37816359827 0.00359754248961 0.0
1.36828191639 0.000719731768223 0.0
1.39475135006 -0.00137114804441 0.0
1.37266606053 0.00241497669446 0.0
1.3924053826 -0.000938787289695 0.0
0.742985928203 -0.000267098636737 0.0
0.666749531893 0.00322217939683 0.0
1.36781909461 0.000879080302604 0.0
1.40877262126 -0.000474928922255 0.0
0.639552788602 0.00187882775986 0.0
1.40724306031 0.00943844668968 0.0
1.09681740333 0.00139009740612 0.0
1.16994813616 0.000535144170994 0.0
1.14322722265 0.00646599711536 0.0
1.13891904147 0.00596262128971 0.0
1.14152043946 0.00562936010349 0.0
1.14311184331 0.00568912788544 0.0
1.16406136501 0.00576073936137 0.0
1.13139382975 0.00533177560198 0.0
1.17935847472 0.00411954956316 0.0
1.19301138489 0.00227151050964 0.0
1.1240466936 -0.000675267090265 0.0
1.1943530267 0.00343161402064 0.0
1.12655251168 -0.00024505291299 0.0
1.12602111493 0.00533881047648 0.0
1.18461370241 0.00319277452094 0.0
1.12558996827 0.002684087466 0.0
1.18985244846 0.00383041706468 0.0
1.12473749421 -0.000123873661068 0.0
1.19395476729 0.000985278542636 0.0
1.36067068563 0.000472066909013 0.0
1.45275866612 -0.00142366158977 0.0
1.44198636553 0.00998014014731 0.0
1.39741809366 0.00423819082565 0.0
1.44371064917 0.00860798600888 0.0
1.38823743367 0.00276679059722 0.0
1.4442802835 0.0060124489666 0.0
1.37999955108 0.00235966257162 0.0
1.44664410831 0.0025690084459 0.0
1.37107275411 0.00234846413403 0.0
1.44949034879 -0.000255388960981 0.0
1.44916845744 -0.00116767305473 0.0
1.36505267831 0.00113348683361 0.0
0.566081563954 -0.000230197166205 0.0
0.501686122612 -6.15409617883e-05 0.0
0.525521521886 0.000797133086845 0.0
0.466803542748 -0.000203454996879 0.0
0.539815909883 0.000490299619925 0.0
0.47800828176 6.4168739413e-05 0.0
0.487729580083 6.60999322573e-05 0.0
0.550977850243 7.14160961438e-06 0.0
0.475553306902 0.00101456113607 0.0
0.523753607198 0.000770019560556 0.0
0.500507115821 0.000611611491013 0.0
0.554606589312 0.000847427365983 0.0
0.472353029912 0.00138426060079 0.0
0.5099858448 0.000444508769693 0.0
0.496045065885 0.00175167896612 0.0
0.53929282265 0.000333571557958 0.0
0.478457643807 0.00102071396289 0.0
0.507834285943 0.000537676289317 0.0
0.490189716397 -0.000269261346149 0.0
0.548735755108 0.0011003157131 0.0
0.504692669939 0.00139922625439 0.0
0.539018958662 0.000153608656379 0.0
0.483416884785 0.000876704188399 0.0
0.510014975639 0.00108746910485 0.0
0.535831207984 0.000712476222738 0.0
0.515626896034 0.00098501367161 0.0
1.41620219021 0.00745779487982 0.0
1.15684188483 0.000556798944226 0.0
1.08222719259 0.00178353940514 0.0
1.43126540764 0.00856076660168 0.0
1.15148458277 0.00379241381496 0.0
1.08326239464 0.00148092571677 0.0
1.15837769761 0.00299535906572 0.0
1.09637431472 0.00486508029458 0.0
1.13708700297 0.0031657714122 0.0
1.08440222308 0.00507248896831 0.0
1.08156610326 -0.00023261731548 0.0
1.1526766779 0.00377243540966 0.0
1.12852639606 0.00492105231086 0.0
1.09218335687 0.00506957218668 0.0
1.09961459811 0.00517400088965 0.0
1.07603618349 -0.00127810763271 0.0
1.15006511551 0.00150181628372 0.0
0.485260870222 0.00080157047071 0.0
0.470163094878 0.000741567063741 0.0
1.35753115608 0.000195333562277 0.0
1.45411300524 -0.00148013620891 0.0
0.507015686384 0.000254446801538 0.0
0.569148007782 9.45169924557e-05 0.0
0.550208127888 -0.000289213277604 0.0
0.487078221062 0.000999234802355 0.0
1.36685990957 0.00166565646296 0.0
1.45189349049 -0.000724546106884 0.0
1.37372909506 0.00216839652767 0.0
1.45232179558 0.00106365968332 0.0
1.38210695169 0.00213115961505 0.0
1.44971416221 0.00417541070067 0.0
1.3580573599 0.000291107531169 0.0
1.45050611183 0.000102449225844 0.0
1.39193175931 0.0032555796627 0.0
1.44650290682 0.00690630620404 0.0
1.40226851436 0.00496933575173 0.0