# vtk DataFile Version 2.0
2D Simulation Python
ASCII
DATASET UNSTRUCTURED_GRID
FIELD FieldData 1
NODES 1 2 int
2790 1289

POINTS 2790 double
0.0 1.0 0.0
1.725 1.0 0.0
8.275 1.0 0.0
20.0 1.0 0.0
20.0 0.0 0.0
0.0 0.0 0.0
0.1916666666663293 1.0 0.0
0.3833333333324708 1.0 0.0
0.574999999998553 1.0 0.0
0.7666666666645966 1.0 0.0
0.9583333333312576 1.0 0.0
1.149999999998384 1.0 0.0
1.341666666665662 1.0 0.0
1.533333333332819 1.0 0.0
0.0958333333331406 1.0 0.0
0.2874999999994247 1.0 0.0
0.4791666666655395 1.0 0.0
0.6708333333315728 1.0 0.0
0.8624999999976626 1.0 0.0
1.054166666664886 1.0 0.0
1.245833333332057 1.0 0.0
1.437499999999343 1.0 0.0
1.629166666666455 1.0 0.0
1.92348484848444 1.0 0.0
2.121969696968978 1.0 0.0
2.320454545453434 1.0 0.0
2.518939393937826 1.0 0.0
2.717424242422235 1.0 0.0
2.915909090906411 1.0 0.0
3.1143939393908 1.0 0.0
3.312878787875129 1.0 0.0
3.511363636359531 1.0 0.0
3.709848484843827 1.0 0.0
3.90833333332816 1.0 0.0
4.106818181812215 1.0 0.0
4.305303030296804 1.0 0.0
4.503787878781365 1.0 0.0
4.702272727265711 1.0 0.0
4.900757575750005 1.0 0.0
5.099242424235156 1.0 0.0
5.297727272720327 1.0 0.0
5.496212121205663 1.0 0.0
5.694696969690998 1.0 0.0
5.89318181817668 1.0 0.0
6.09166666666213 1.0 0.0
6.290151515147423 1.0 0.0
6.488636363633031 1.0 0.0
6.687121212118713 1.0 0.0
6.885606060604342 1.0 0.0
7.084090909089381 1.0 0.0
7.282575757574369 1.0 0.0
7.481060606059355 1.0 0.0
7.679545454544343 1.0 0.0
7.878030303029329 1.0 0.0
8.076515151514705 1.0 0.0
1.824242424242199 1.0 0.0
2.022727272726695 1.0 0.0
2.221212121211181 1.0 0.0
2.41969696969563 1.0 0.0
2.618181818180092 1.0 0.0
2.816666666664316 1.0 0.0
3.015151515148624 1.0 0.0
3.213636363633039 1.0 0.0
3.412121212117267 1.0 0.0
3.610606060601583 1.0 0.0
3.809090909085975 1.0 0.0
4.007575757570153 1.0 0.0
4.206060606054539 1.0 0.0
4.404545454539001 1.0 0.0
4.603030303023853 1.0 0.0
4.801515151507715 1.0 0.0
4.999999999992074 1.0 0.0
5.198484848477777 1.0 0.0
5.396969696963081 1.0 0.0
5.595454545448261 1.0 0.0
5.793939393933949 1.0 0.0
5.992424242419331 1.0 0.0
6.190909090904785 1.0 0.0
6.389393939390224 1.0 0.0
6.587878787875795 1.0 0.0
6.786363636361617 1.0 0.0
6.984848484846598 1.0 0.0
7.183333333331875 1.0 0.0
7.381818181816625 1.0 0.0
7.580303030301849 1.0 0.0
7.778787878786936 1.0 0.0
7.977272727272114 1.0 0.0
8.175757575757618 1.0 0.0
8.473728813558951 1.0 0.0
8.672457627118133 1.0 0.0
8.871186440676855 1.0 0.0
9.069915254236154 1.0 0.0
9.268644067794812 1.0 0.0
9.467372881354057 1.0 0.0
9.666101694912944 1.0 0.0
9.864830508471961 1.0 0.0
10.06355932203108 1.0 0.0
10.26228813558986 1.0 0.0
10.46101694914916 1.0 0.0
10.65974576270777 1.0 0.0
10.85847457626706 1.0 0.0
11.05720338982589 1.0 0.0
11.25593220338497 1.0 0.0
11.45466101694402 1.0 0.0
11.65338983050287 1.0 0.0
11.85211864406215 1.0 0.0
12.05084745762035 1.0 0.0
12.24957627117938 1.0 0.0
12.44830508473794 1.0 0.0
12.64703389829659 1.0 0.0
12.84576271185557 1.0 0.0
13.04449152541379 1.0 0.0
13.24322033897301 1.0 0.0
13.44194915253121 1.0 0.0
13.6406779660903 1.0 0.0
13.83940677964874 1.0 0.0
14.03813559320751 1.0 0.0
14.23686440676681 1.0 0.0
14.43559322032663 1.0 0.0
14.63432203388679 1.0 0.0
14.8330508474463 1.0 0.0
15.0317796610067 1.0 0.0
15.23050847456608 1.0 0.0
15.42923728812645 1.0 0.0
15.62796610168606 1.0 0.0
15.82669491524602 1.0 0.0
16.02542372880584 1.0 0.0
16.22415254236431 1.0 0.0
16.42288135592496 1.0 0.0
16.62161016948498 1.0 0.0
16.82033898304518 1.0 0.0
17.01906779660567 1.0 0.0
17.2177966101654 1.0 0.0
17.41652542372565 1.0 0.0
17.61525423728425 1.0 0.0
17.81398305084494 1.0 0.0
18.01271186440355 1.0 0.0
18.21144067796387 1.0 0.0
18.41016949152309 1.0 0.0
18.6088983050827 1.0 0.0
18.80762711864282 1.0 0.0
19.00635593220153 1.0 0.0
19.20508474576211 1.0 0.0
19.40381355932072 1.0 0.0
19.60254237288117 1.0 0.0
19.80127118644013 1.0 0.0
8.374364406779554 1.0 0.0
8.573093220338519 1.0 0.0
8.771822033897509 1.0 0.0
8.970550847456504 1.0 0.0
9.169279661015429 1.0 0.0
9.368008474574502 1.0 0.0
9.566737288133496 1.0 0.0
9.765466101692677 1.0 0.0
9.964194915251602 1.0 0.0
10.16292372881015 1.0 0.0
10.36165254236967 1.0 0.0
10.56038135592849 1.0 0.0
10.75911016948728 1.0 0.0
10.95783898304648 1.0 0.0
11.15656779660554 1.0 0.0
11.35529661016447 1.0 0.0
11.55402542372345 1.0 0.0
11.75275423728253 1.0 0.0
11.95148305084111 1.0 0.0
12.15021186439983 1.0 0.0
12.34894067795883 1.0 0.0
12.54766949151722 1.0 0.0
12.74639830507616 1.0 0.0
12.94512711863486 1.0 0.0
13.14385593219357 1.0 0.0
13.34258474575207 1.0 0.0
13.54131355931069 1.0 0.0
13.7400423728695 1.0 0.0
13.93877118642822 1.0 0.0
14.13749999998697 1.0 0.0
14.33622881354686 1.0 0.0
14.53495762710678 1.0 0.0
14.73368644066656 1.0 0.0
14.93241525422655 1.0 0.0
15.13114406778625 1.0 0.0
15.32987288134641 1.0 0.0
15.52860169490635 1.0 0.0
15.7273305084661 1.0 0.0
15.9260593220261 1.0 0.0
16.12478813558534 1.0 0.0
16.32351694914468 1.0 0.0
16.52224576270527 1.0 0.0
16.72097457626511 1.0 0.0
16.91970338982543 1.0 0.0
17.11843220338561 1.0 0.0
17.31716101694539 1.0 0.0
17.51588983050497 1.0 0.0
17.71461864406449 1.0 0.0
17.91334745762401 1.0 0.0
18.11207627118383 1.0 0.0
18.31080508474307 1.0 0.0
18.50953389830311 1.0 0.0
18.70826271186271 1.0 0.0
18.90699152542239 1.0 0.0
19.10572033898203 1.0 0.0
19.30444915254171 1.0 0.0
19.50317796610107 1.0 0.0
19.70190677966065 1.0 0.0
19.90063559322003 1.0 0.0
20.0 0.7999999999999998 0.0
20.0 0.6000000000013869 0.0
20.0 0.4000000000016644 0.0
20.0 0.2000000000008322 0.0
20.0 0.9000000000000369 0.0
20.0 0.7000000000005904 0.0
20.0 0.5000000000017577 0.0
20.0 0.3000000000012483 0.0
20.0 0.1000000000004161 0.0
19.8 0.0 0.0
19.6 0.0 0.0
19.4 0.0 0.0
19.2 0.0 0.0
19.0 0.0 0.0
18.8 0.0 0.0
18.6 0.0 0.0
18.4 0.0 0.0
18.2 0.0 0.0
18.0 0.0 0.0
17.8 0.0 0.0
17.59999999999999 0.0 0.0
17.4 0.0 0.0
17.2 0.0 0.0
16.99999999999999 0.0 0.0
16.79999999999999 0.0 0.0
16.59999999999999 0.0 0.0
16.4 0.0 0.0
16.2 0.0 0.0
15.99999999999999 0.0 0.0
15.79999999999999 0.0 0.0
15.59999999999999 0.0 0.0
15.4 0.0 0.0
15.2 0.0 0.0
15.0 0.0 0.0
14.79999999999999 0.0 0.0
14.59999999999999 0.0 0.0
14.4 0.0 0.0
14.2 0.0 0.0
13.99999999999999 0.0 0.0
13.8 0.0 0.0
13.59999999999999 0.0 0.0
13.4 0.0 0.0
13.2 0.0 0.0
13.0 0.0 0.0
12.79999999999999 0.0 0.0
12.6 0.0 0.0
12.4 0.0 0.0
12.2 0.0 0.0
11.99999999999999 0.0 0.0
11.8 0.0 0.0
11.6 0.0 0.0
11.4 0.0 0.0
11.2 0.0 0.0
11.0 0.0 0.0
10.8 0.0 0.0
10.6 0.0 0.0
10.4 0.0 0.0
10.2 0.0 0.0
9.999999999999998 0.0 0.0
9.799999999999995 0.0 0.0
9.599999999999998 0.0 0.0
9.399999999999997 0.0 0.0
9.199999999999998 0.0 0.0
8.999999999999996 0.0 0.0
8.799999999999997 0.0 0.0
8.599999999999996 0.0 0.0
8.399999999999999 0.0 0.0
8.199999999999996 0.0 0.0
7.999999999999998 0.0 0.0
7.799999999999997 0.0 0.0
7.599999999999998 0.0 0.0
7.399999999999999 0.0 0.0
7.199999999999998 0.0 0.0
6.999999999999995 0.0 0.0
6.799999999999995 0.0 0.0
6.599999999999998 0.0 0.0
6.399999999999997 0.0 0.0
6.199999999999996 0.0 0.0
5.999999999999998 0.0 0.0
5.799999999999999 0.0 0.0
5.599999999999996 0.0 0.0
5.399999999999995 0.0 0.0
5.199999999999996 0.0 0.0
4.999999999999998 0.0 0.0
4.799999999999997 0.0 0.0
4.599999999999998 0.0 0.0
4.399999999999999 0.0 0.0
4.199999999999999 0.0 0.0
3.999999999999996 0.0 0.0
3.799999999999997 0.0 0.0
3.599999999999998 0.0 0.0
3.399999999999999 0.0 0.0
3.199999999999999 0.0 0.0
3.0 0.0 0.0
2.800000000000001 0.0 0.0
2.599999999999998 0.0 0.0
2.399999999999999 0.0 0.0
2.199999999999996 0.0 0.0
1.999999999999996 0.0 0.0
1.800000000000001 0.0 0.0
1.599999999999998 0.0 0.0
1.399999999999999 0.0 0.0
1.200000000000003 0.0 0.0
1.0 0.0 0.0
0.7999999999999972 0.0 0.0
0.5999999999999979 0.0 0.0
0.3999999999999986 0.0 0.0
0.1999999999999993 0.0 0.0
19.90000000000022 0.0 0.0
19.69999999999997 0.0 0.0
19.49999999999987 0.0 0.0
19.30000000000005 0.0 0.0
19.09999999999999 0.0 0.0
18.89999999999987 0.0 0.0
18.7 0.0 0.0
18.49999999999999 0.0 0.0
18.30000000000001 0.0 0.0
18.09999999999987 0.0 0.0
17.90000000000013 0.0 0.0
17.7 0.0 0.0
17.49999999999987 0.0 0.0
17.30000000000025 0.0 0.0
17.10000000000001 0.0 0.0
16.90000000000005 0.0 0.0
16.70000000000003 0.0 0.0
16.50000000000006 0.0 0.0
16.29999999999997 0.0 0.0
16.09999999999999 0.0 0.0
15.89999999999987 0.0 0.0
15.69999999999999 0.0 0.0
15.49999999999999 0.0 0.0
15.3 0.0 0.0
15.10000000000003 0.0 0.0
14.90000000000005 0.0 0.0
14.69999999999992 0.0 0.0
14.49999999999996 0.0 0.0
14.29999999999999 0.0 0.0
14.10000000000008 0.0 0.0
13.89999999999988 0.0 0.0
13.70000000000003 0.0 0.0
13.50000000000004 0.0 0.0
13.29999999999992 0.0 0.0
13.09999999999995 0.0 0.0
12.90000000000016 0.0 0.0
12.7 0.0 0.0
12.49999999999986 0.0 0.0
12.30000000000003 0.0 0.0
12.10000000000016 0.0 0.0
11.90000000000005 0.0 0.0
11.69999999999994 0.0 0.0
11.49999999999993 0.0 0.0
11.30000000000005 0.0 0.0
11.0999999999999 0.0 0.0
10.90000000000004 0.0 0.0
10.69999999999995 0.0 0.0
10.50000000000012 0.0 0.0
10.29999999999999 0.0 0.0
10.09999999999993 0.0 0.0
9.900000000000077 0.0 0.0
9.699999999999969 0.0 0.0
9.499999999999982 0.0 0.0
9.299999999999969 0.0 0.0
9.100000000000108 0.0 0.0
8.899999999999972 0.0 0.0
8.699999999999958 0.0 0.0
8.499999999999998 0.0 0.0
8.30000000000003 0.0 0.0
8.099999999999977 0.0 0.0
7.899999999999974 0.0 0.0
7.700000000000166 0.0 0.0
7.499999999999854 0.0 0.0
7.299999999999997 0.0 0.0
7.100000000000019 0.0 0.0
6.900000000000002 0.0 0.0
6.699999999999974 0.0 0.0
6.500000000000037 0.0 0.0
6.299999999999981 0.0 0.0
6.100000000000014 0.0 0.0
5.899999999999949 0.0 0.0
5.700000000000049 0.0 0.0
5.499999999999956 0.0 0.0
5.300000000000118 0.0 0.0
5.100000000000005 0.0 0.0
4.900000000000109 0.0 0.0
4.699999999999982 0.0 0.0
4.499999999999936 0.0 0.0
4.300000000000137 0.0 0.0
4.100000000000012 0.0 0.0
3.899999999999888 0.0 0.0
3.69999999999974 0.0 0.0
3.500000000000046 0.0 0.0
3.299999999999965 0.0 0.0
3.099999999999817 0.0 0.0
2.900000000000066 0.0 0.0
2.699999999999793 0.0 0.0
2.500000000000064 0.0 0.0
2.299999999999823 0.0 0.0
[...]
POINT_DATA 2790
VECTORS vector double
1.0 0.0 0.0
0.0 0.0 0.0
0.0 0.0 0.0
0.0 0.0 0.0
1.0083800018 0.0 0.0
1.0 0.0 0.0
0.0 0.0 0.0
0.0 0.0 0.0
0.0 0.0 0.0
0.0 0.0 0.0
0.0 0.0 0.0
0.0 0.0 0.0
0.0 0.0 0.0
0.0 0.0 0.0
0.0 0.0 0.0
0.0 0.0 0.0
0.0 0.0 0.0
0.0 0.0 0.0
0.0 0.0 0.0
0.0 0.0 0.0
0.0 0.0 0.0
0.0 0.0 0.0
0.0 0.0 0.0
0.0 0.0 0.0
0.0 0.0 0.0
0.0 0.0 0.0
0.0 0.0 0.0
0.0 0.0 0.0
0.0 0.0 0.0
0.0 0.0 0.0
0.0 0.0 0.0
0.0 0.0 0.0
0.0 0.0 0.0
0.0 0.0 0.0
0.0 0.0 0.0
0.0 0.0 0.0
0.0 0.0 0.0
0.0 0.0 0.0
0.0 0.0 0.0
0.0 0.0 0.0
0.0 0.0 0.0
0.0 0.0 0.0
0.0 0.0 0.0
0.0 0.0 0.0
0.0 0.0 0.0
0.0 0.0 0.0
0.0 0.0 0.0
0.0 0.0 0.0
0.0 0.0 0.0
0.0 0.0 0.0
0.0 0.0 0.0
0.0 0.0 0.0
0.0 0.0 0.0
0.0 0.0 0.0
0.0 0.0 0.0
0.0 0.0 0.0
0.0 0.0 0.0
0.0 0.0 0.0
0.0 0.0 0.0
0.0 0.0 0.0
0.0 0.0 0.0
0.0 0.0 0.0
0.0 0.0 0.0
0.0 0.0 0.0
0.0 0.0 0.0
0.0 0.0 0.0
0.0 0.0 0.0
0.0 0.0 0.0
0.0 0.0 0.0
0.0 0.0 0.0
0.0 0.0 0.0
0.0 0.0 0.0
0.0 0.0 0.0
0.0 0.0 0.0
0.0 0.0 0.0
0.0 0.0 0.0
0.0 0.0 0.0
0.0 0.0 0.0
0.0 0.0 0.0
0.0 0.0 0.0
0.0 0.0 0.0
0.0 0.0 0.0
0.0 0.0 0.0
0.0 0.0 0.0
0.0 0.0 0.0
0.0 0.0 0.0
0.0 0.0 0.0
0.0 0.0 0.0
0.0 0.0 0.0
0.0 0.0 0.0
0.0 0.0 0.0
0.0 0.0 0.0
0.0 0.0 0.0
0.0 0.0 0.0
0.0 0.0 0.0
0.0 0.0 0.0
0.0 0.0 0.0
0.0 0.0 0.0
0.0 0.0 0.0
0.0 0.0 0.0
0.0 0.0 0.0
0.0 0.0 0.0
0.0 0.0 0.0
0.0 0.0 0.0
0.0 0.0 0.0
0.0 0.0 0.0
0.0 0.0 0.0
0.0 0.0 0.0
0.0 0.0 0.0
0.0 0.0 0.0
0.0 0.0 0.0
0.0 0.0 0.0
0.0 0.0 0.0
0.0 0.0 0.0
0.0 0.0 0.0
0.0 0.0 0.0
0.0 0.0 0.0
0.0 0.0 0.0
0.0 0.0 0.0
0.0 0.0 0.0
0.0 0.0 0.0
0.0 0.0 0.0
0.0 0.0 0.0
0.0 0.0 0.0
0.0 0.0 0.0
0.0 0.0 0.0
0.0 0.0 0.0
0.0 0.0 0.0
0.0 0.0 0.0
0.0 0.0 0.0
0.0 0.0 0.0
0.0 0.0 0.0
0.0 0.0 0.0
0.0 0.0 0.0
0.0 0.0 0.0
0.0 0.0 0.0
0.0 0.0 0.0
0.0 0.0 0.0
0.0 0.0 0.0
0.0 0.0 0.0
0.0 0.0 0.0
0.0 0.0 0.0
0.0 0.0 0.0
0.0 0.0 0.0
0.0 0.0 0.0
0.0 0.0 0.0
0.0 0.0 0.0
0.0 0.0 0.0
0.0 0.0 0.0
0.0 0.0 0.0
0.0 0.0 0.0
0.0 0.0 0.0
0.0 0.0 0.0
0.0 0.0 0.0
0.0 0.0 0.0
0.0 0.0 0.0
0.0 0.0 0.0
0.0 0.0 0.0
0.0 0.0 0.0
0.0 0.0 0.0
0.0 0.0 0.0
0.0 0.0 0.0
0.0 0.0 0.0
0.0 0.0 0.0
0.0 0.0 0.0
0.0 0.0 0.0
0.0 0.0 0.0
0.0 0.0 0.0
0.0 0.0 0.0
0.0 0.0 0.0
0.0 0.0 0.0
0.0 0.0 0.0
0.0 0.0 0.0
0.0 0.0 0.0
0.0 0.0 0.0
0.0 0.0 0.0
0.0 0.0 0.0
0.0 0.0 0.0
0.0 0.0 0.0
0.0 0.0 0.0
0.0 0.0 0.0
0.0 0.0 0.0
0.0 0.0 0.0
0.0 0.0 0.0
0.0 0.0 0.0
0.0 0.0 0.0
0.0 0.0 0.0
0.0 0.0 0.0
0.0 0.0 0.0
0.0 0.0 0.0
0.0 0.0 0.0
0.0 0.0 0.0
0.0 0.0 0.0
0.0 0.0 0.0
0.0 0.0 0.0
0.0 0.0 0.0
0.0 0.0 0.0
0.0 0.0 0.0
0.0 0.0 0.0
0.0 0.0 0.0
0.0 0.0 0.0
0.0 0.0 0.0
0.0 0.0 0.0
0.0 0.0 0.0
0.0 0.0 0.0
1.04759371584 -0.0224722378802 0.0
1.01679706481 -0.000222410966346 0.0
1.01055531664 0.000478007510005 0.0
1.00872431926 0.000125095740104 0.0
0.97765880636 0.10993642867 0.0
1.01906983686 -0.00116408681233 0.0
1.01252325236 -0.000254189510197 0.0
1.00939578626 8.19479492428e-05 0.0
1.0084210788 5.97192704591e-05 0.0
1.00796591574 0.0 0.0
1.00718784457 0.0 0.0
1.00658494112 0.0 0.0
1.00647623431 0.0 0.0
1.00659573147 0.0 0.0
1.00677586021 0.0 0.0
1.00701624587 0.0 0.0
1.00725491447 0.0 0.0
1.00746236223 0.0 0.0
1.007643429 0.0 0.0
1.00768284634 0.0 0.0
1.00763065785 0.0 0.0
1.00760557513 0.0 0.0
1.00755223836 0.0 0.0
1.00750144467 0.0 0.0
1.00751130322 0.0 0.0
1.00747785053 0.0 0.0
1.00744564028 0.0 0.0
1.00748909647 0.0 0.0
1.00747827596 0.0 0.0
1.00745883147 0.0 0.0
1.00750732625 0.0 0.0
1.00749364322 0.0 0.0
1.00747490728 0.0 0.0
1.00752335356 0.0 0.0
1.00750785086 0.0 0.0
1.00748876153 0.0 0.0
1.00753833321 0.0 0.0
1.00752125777 0.0 0.0
1.00750123441 0.0 0.0
1.00755272484 0.0 0.0
1.00753682976 0.0 0.0
1.00752156596 0.0 0.0
1.00757004271 0.0 0.0
1.00756360905 0.0 0.0
1.00755221237 0.0 0.0
1.00759927328 0.0 0.0
1.00760625559 0.0 0.0
1.00754990145 0.0 0.0
1.00754284901 0.0 0.0
1.00754613072 0.0 0.0
1.00744103542 0.0 0.0
1.00748759805 0.0 0.0
1.00750336911 0.0 0.0
1.00742583699 0.0 0.0
1.00748892652 0.0 0.0
1.00754103078 0.0 0.0
1.00750671072 0.0 0.0
1.00761077293 0.0 0.0
1.00777285958 0.0 0.0
1.00786733526 0.0 0.0
1.00812414822 0.0 0.0
1.00841038541 0.0 0.0
1.00870837708 0.0 0.0
1.00863246547 0.0 0.0
1.00837980851 0.0 0.0
1.00815459163 0.0 0.0
1.00803358162 0.0 0.0
1.00783891559 0.0 0.0
1.00768771239 0.0 0.0
1.007658262 0.0 0.0
1.00758303408 0.0 0.0
1.00770940852 0.0 0.0
1.00784873995 0.0 0.0
1.00787245016 0.0 0.0
1.00796228549 0.0 0.0
1.00808982015 0.0 0.0
1.00806012846 0.0 0.0
1.00801166454 0.0 0.0
1.00789955331 0.0 0.0
1.00744226915 0.0 0.0
1.00665214647 0.0 0.0
1.00598338257 0.0 0.0
1.00571407524 0.0 0.0
1.00595399237 0.0 0.0
1.00647020452 0.0 0.0
1.00693997106 0.0 0.0
1.00717162349 0.0 0.0
1.00734572641 0.0 0.0
1.00751940452 0.0 0.0
1.00757413563 0.0 0.0
1.00761071145 0.0 0.0
1.007662072 0.0 0.0
1.0076362949 0.0 0.0
1.00774589889 0.0 0.0
1.0079048622 0.0 0.0
1.00810575716 0.0 0.0
1.00849663337 0.0 0.0
1.00904263885 0.0 0.0
1.00950717887 0.0 0.0
1.01009505269 0.0 0.0
1.01032697146 0.0 0.0
1.01019631291 0.0 0.0
1.01000354419 0.0 0.0
1.00957388976 0.0 0.0
1.00868831606 0.0 0.0
1.00762327123 0.0 0.0
1.00725555178 0.0 0.0
1.01949393599 0.0 0.0
1.00821734291 0.0 0.0
1.00763202223 0.0 0.0
1.00687083893 0.0 0.0
1.00657252467 0.0 0.0
1.00656786745 0.0 0.0
1.00665738344 0.0 0.0
1.00693541006 0.0 0.0
1.00710393849 0.0 0.0
1.00732314267 0.0 0.0
1.00757550472 0.0 0.0
1.00763324372 0.0 0.0
1.00761169192 0.0 0.0
1.00766190512 0.0 0.0
1.00756458282 0.0 0.0
1.00753600301 0.0 0.0
1.00756264753 0.0 0.0
1.00752840649 0.0 0.0
1.00749706997 0.0 0.0
1.00753245608 0.0 0.0
1.00752149376 0.0 0.0
1.00750906456 0.0 0.0
1.00754867251 0.0 0.0
1.00753988305 0.0 0.0
1.00752556665 0.0 0.0
1.00756649796 0.0 0.0
1.00755532111 0.0 0.0
1.00754002742 0.0 0.0
1.00758215392 0.0 0.0
1.00756989354 0.0 0.0
1.00755343861 0.0 0.0
1.00759631524 0.0 0.0
1.0075854847 0.0 0.0
1.00757125295 0.0 0.0
1.0076165868 0.0 0.0
1.00760683171 0.0 0.0
1.00760013722 0.0 0.0
1.00764823552 0.0 0.0
1.00765014727 0.0 0.0
1.00764185542 0.0 0.0
1.00765412582 0.0 0.0
1.00760454113 0.0 0.0
1.00755822274 0.0 0.0
1.00756594894 0.0 0.0
1.00755780123 0.0 0.0
1.00752314265 0.0 0.0
1.00755702713 0.0 0.0
1.00756931829 0.0 0.0
1.0075653254 0.0 0.0
1.00766301548 0.0 0.0
1.0077510305 0.0 0.0
1.00787312516 0.0 0.0
1.008090192 0.0 0.0
1.00839366508 0.0 0.0
1.00866854299 0.0 0.0
1.00869663428 0.0 0.0
1.00855375514 0.0 0.0
1.00834168003 0.0 0.0
1.00817595538 0.0 0.0
1.00797674265 0.0 0.0
1.0078350322 0.0 0.0
1.00771658924 0.0 0.0
1.00766963009 0.0 0.0
1.00774022548 0.0 0.0
1.00784273454 0.0 0.0
1.00790628445 0.0 0.0
1.00802775027 0.0 0.0
1.00809989534 0.0 0.0
1.00811509745 0.0 0.0
1.00813960271 0.0 0.0
1.00807924809 0.0 0.0
1.00776353737 0.0 0.0
1.00707923654 0.0 0.0
1.0062790176 0.0 0.0
1.00580632016 0.0 0.0
1.00580403663 0.0 0.0
1.00624004681 0.0 0.0
1.00676851626 0.0 0.0
1.00710045264 0.0 0.0
1.00729861677 0.0 0.0
1.0074642876 0.0 0.0
1.00760370904 0.0 0.0
1.00767348952 0.0 0.0
1.00768932587 0.0 0.0
1.00771306836 0.0 0.0
1.00777078078 0.0 0.0
1.00788889123 0.0 0.0
1.0080699823 0.0 0.0
1.00838384882 0.0 0.0
1.00886298051 0.0 0.0
1.00939099588 0.0 0.0
1.00989195547 0.0 0.0
1.01032915111 0.0 0.0
1.01039723709 0.0 0.0
1.01021173567 0.0 0.0
1.00990070769 0.0 0.0
1.00920975213 0.0 0.0
1.00821739092 0.0 0.0
1.00722676512 0.0 0.0
1.01148557327 0.0 0.0
1.03130310508 0.0 0.0
1.0 0.0 0.0
1.0 0.0 0.0
1.0 0.0 0.0
1.0 0.0 0.0
1.0 0.0 0.0
1.0 0.0 0.0
1.0 0.0 0.0
1.0 0.0 0.0
1.0 0.0 0.0
1.01053313328 -0.00264716815328 0.0
1.00988792668 -0.00158704948135 0.0
1.01143811642 0.000989906931131 0.0
1.00152593424 0.00235335417047 0.0
1.00380341538 0.000966686308156 0.0
1.00483449906 0.000983254724877 0.0
1.00468367056 0.00027195755863 0.0
1.00437125907 0.000481543639683 0.0
1.0044615599 0.000518711611497 0.0
1.00448171585 0.000508013584053 0.0
1.00450337194 0.000496684060193 0.0
1.00452340118 0.000487604649748 0.0
1.00454129307 0.000478083572529 0.0
1.00455472618 0.000477843642113 0.0
1.00459394718 0.000514340648635 0.0
1.00469182423 0.0005751300452 0.0
1.00457457291 0.000800230109914 0.0
1.0045771442 0.000845954387608 0.0
1.00456781355 0.000947160027729 0.0
1.00698900182 0.000169712796831 0.0
1.00482259474 0.00152285104079 0.0
1.00470447778 0.00124043873603 0.0
1.00466767432 0.00138943512133 0.0
1.00475091138 0.000637031459981 0.0
1.00507241053 0.000899908480357 0.0
1.00797433788 0.000911087954868 0.0
1.00473555687 0.000531665588853 0.0
1.00513683368 0.00108234290338 0.0
1.00466662368 0.000835882733988 0.0
1.00791518 -0.00185831221213 0.0
1.00582650236 0.00240529488218 0.0
1.00754097645 -0.00098402048113 0.0
1.0032672034 0.000396337001649 0.0
0.997290521045 -0.00956057825273 0.0
1.01055611585 -0.0112911585006 0.0
1.00735155259 0.000459006504085 0.0
1.00761375811 0.000122710797366 0.0
1.00859176079 -0.000237991142051 0.0
1.00768814133 1.85651839197e-05 0.0
1.00805695662 9.05421259522e-05 0.0
1.00940416242 0.00114539492899 0.0
1.00784563392 0.000333771565881 0.0
1.00786287517 0.000189869779447 0.0
1.00753649966 -0.000160335458767 0.0
1.00847278017 0.000481881804603 0.0
1.00765038908 0.00016208324068 0.0
1.00756573411 2.11376181162e-05 0.0
1.00754270382 -1.33569192854e-05 0.0
1.00758604752 -7.28280443022e-05 0.0
1.00773640926 -1.74350155721e-05 0.0
1.0076738316 2.26193752119e-05 0.0
1.00765964476 1.47630233662e-05 0.0
0.997833155718 -0.000340658928569 0.0
1.00764837352 1.16449105858e-05 0.0
1.00763574469 1.25527018908e-05 0.0
1.00762260061 1.34149861241e-05 0.0
1.01083001785 -0.000105659012627 0.0
1.00760630398 1.41524730656e-05 0.0
1.00499754466 -0.000493032809502 0.0
1.00973850212 -0.000857414144712 0.0
1.0075966572 3.71847117085e-06 0.0
1.00761751587 -5.54540886801e-05 0.0
0.998730820024 -0.00165231178561 0.0
1.00783902661 -3.01959020959e-05 0.0
0.998109149849 -0.00123335306566 0.0
0.997840421086 -0.00189814630469 0.0
0.997417032412 -0.00138886903924 0.0
1.00194605088 -0.000398332049292 0.0
0.997428389563 0.00265383713621 0.0
0.997412303596 -0.00155972075166 0.0
0.999659354938 -0.00187329035413 0.0
0.997262292225 -0.00132950810488 0.0
0.999898471611 -0.00161797237691 0.0
0.997823521135 -0.00177492569401 0.0
0.999468108536 -0.000574463124719 0.0
0.998380630059 -0.00140970261302 0.0
0.998440067254 -0.00162594131659 0.0
0.998465159375 -0.00167185343344 0.0
0.998445828254 -0.00177024614796 0.0
0.998458843268 -0.00207956337233 0.0
0.998542527784 -0.00238973336755 0.0
0.998571394022 -0.002430810496 0.0
0.998591142831 -0.00246019110512 0.0
0.998606865275 -0.00248982330356 0.0
0.998619663697 -0.00251904261347 0.0
1.00726307362 0.00045430742006 0.0
0.998633541145 -0.00254903570474 0.0
0.998630509927 -0.00258799113071 0.0
0.998638107764 -0.00269106166093 0.0
0.999653732476 -0.00322069634356 0.0
1.00642654255 0.000440929223542 0.0
1.00173221395 -0.00784511347005 0.0
1.00764971404 -0.00172430201194 0.0
1.00904346216 -0.000521196304516 0.0
1.00643402865 -0.00149980842106 0.0
1.0053417053 0.000860888777241 0.0
1.0079348026 -0.000361209740589 0.0
1.00268205425 -1.97490834321e-06 0.0
1.00863026361 -0.00673451439079 0.0
1.0037405603 -0.00347416200544 0.0
0.994299201153 -0.00616908298143 0.0
1.01042361938 -0.00740327352815 0.0
1.00565567202 -0.0096672300419 0.0
1.00549884412 -7.59599854342e-05 0.0
1.00753940622 -1.89347824896e-05 0.0
1.00743347258 2.10452408808e-05 0.0
1.01031915998 -0.000341103385086 0.0
1.00758579276 0.000125024433263 0.0
1.00873857133 -0.00146146050564 0.0
1.00743633971 4.06144422543e-05 0.0
1.00754757599 0.000116051946428 0.0
1.00752698658 0.000117828744925 0.0
1.00751278751 0.000135163872543 0.0
1.01314340843 -0.00459183414875 0.0
1.00751205517 0.000118249525892 0.0
1.00793466883 0.000370978888725 0.0
1.00749612691 0.000118854564295 0.0
1.00747875411 0.000120743084076 0.0
1.01022097422 0.000665437026685 0.0
1.00746031236 0.000124921599097 0.0
1.00745595794 7.91622367194e-05 0.0
1.00754416085 3.91081810044e-05 0.0
0.855426945074 0.0103825000608 0.0
1.00778210425 -0.000118947408594 0.0
1.00752189093 0.00028803254171 0.0
0.850642759568 0.00853801833613 0.0
0.869865086368 0.00891987637279 0.0
1.00678467045 0.000365561537727 0.0
0.85761899163 0.00846873019895 0.0
1.00757024707 0.000180772844848 0.0
1.00818466405 0.000500484550977 0.0
0.857837598714 0.00874589883591 0.0
0.857955584669 0.00877668413954 0.0
0.858004197133 0.00876678943098 0.0
0.858061540067 0.00875461095776 0.0
1.00790100324 0.000135938901221 0.0
1.00768421455 0.000136512751492 0.0
0.858116676565 0.00874387253635 0.0
0.858165055634 0.00873152620522 0.0
0.858218114462 0.00872667617789 0.0
0.858280566279 0.00877000295583 0.0
0.850210612974 0.00842173274899 0.0
1.00814220615 9.23878154979e-05 0.0
1.00762096597 7.18235429723e-05 0.0
0.850877048378 0.00858560553754 0.0
0.85096615026 0.00861482692915 0.0
0.901480942482 0.00232994658576 0.0
0.851006308125 0.00868230133474 0.0
0.852979969229 0.00826338333142 0.0
0.854974559414 0.00941027486862 0.0
0.854138843998 0.00810257555711 0.0
0.855017375469 0.00833175950859 0.0
0.850976493929 0.0084404014588 0.0
0.854129741857 0.00806719839048 0.0
0.853554064711 0.00825808120091 0.0
0.854255460994 0.00859789933297 0.0
0.905353856067 0.00108353668174 0.0
0.880249946469 0.0181812617236 0.0
0.870302262436 0.0136119243835 0.0
1.00557981626 -0.000232600140626 0.0
1.00735491363 0.000209972812074 0.0
1.00671366471 0.000734566118948 0.0
1.00792878104 -0.000798295699265 0.0
1.00820711218 -0.00025014210729 0.0
1.00879725716 0.000235863715834 0.0
0.990696738747 0.0148624318642 0.0
0.970621435499 0.0112380156347 0.0
1.00616137272 0.000158210781027 0.0
1.02909695972 -0.0195474895953 0.0
1.01080047677 -0.00377243011561 0.0
1.00287122355 -0.00148236026827 0.0
1.00703314137 -0.00106487510656 0.0
0.890073032645 0.010109748547 0.0
1.01150188857 -0.0063750465689 0.0
0.935593423452 0.0140029481211 0.0
1.02252271104 -0.0132355223699 0.0
1.00761277247 -4.23758685917e-05 0.0
1.00749099176 -3.46846070698e-05 0.0
1.00762145565 -1.26887031528e-05 0.0
1.00746560628 -7.42432652044e-06 0.0
1.01951266215 0.000499429777429 0.0
1.00752093115 2.48263332366e-05 0.0
1.00759936412 -2.18862611413e-05 0.0
1.00778890266 0.00014818540474 0.0
1.00758452778 -2.39846502802e-05 0.0
1.00757186465 -2.2676845747e-05 0.0
1.00866273831 0.000469544972627 0.0
1.00754030603 -2.77229354363e-06 0.0
1.00994497228 -0.000411612730987 0.0
1.00787156226 6.61871358412e-05 0.0
1.0077887271 0.00011409938653 0.0
1.00755843464 -2.18146215011e-05 0.0
1.00810158878 4.40029993605e-05 0.0
1.00764014317 2.00885126034e-05 0.0
1.01041680097 0.000215693286255 0.0
1.00745733127 0.000135878720405 0.0
1.00754237627 -2.07349964227e-05 0.0
1.00753108124 -3.36037863106e-05 0.0
1.00757335384 -1.21950327746e-05 0.0
1.00768797094 -1.05426327927e-05 0.0
1.00737258854 0.000214212744557 0.0
1.0066302473 0.000201640277859 0.0
1.00800536442 -0.00111873613501 0.0
0.916354965885 0.0102315115753 0.0
0.916010754628 0.00409026984935 0.0
0.913591545158 0.017140193037 0.0
0.955897059262 0.0074091904166 0.0
0.905783498068 -0.00865254577626 0.0
0.906585985952 -0.0076305550905 0.0
0.906628930934 -0.00754402349493 0.0
1.00657797188 -0.0032695746399 0.0
0.906606381875 -0.00751551813991 0.0
0.906569930514 -0.00748663118056 0.0
0.906530182093 -0.00745776891784 0.0
1.00491462204 0.00183519597652 0.0
1.00356067497 0.00202468045074 0.0
0.906482671461 -0.00742867158483 0.0
1.00408371508 0.00190096480412 0.0
0.90642793982 -0.00740062753251 0.0
0.90635913385 -0.00735090884069 0.0
0.904738864574 -0.00688409022718 0.0
0.904721136653 -0.00684194274057 0.0
1.00520935557 0.00103450131826 0.0
0.90468882456 -0.00678647816952 0.0
1.00492812469 0.00120675502278 0.0
0.902704367853 -0.00685083857658 0.0
0.904599410388 -0.00674080619093 0.0
1.00494533467 0.0012516660579 0.0
0.886599073493 -0.000355879061652 0.0
1.00497192867 0.00127367277863 0.0
0.898291618673 -0.00514831266643 0.0
0.904558529878 -0.00633233928504 0.0
1.00499155767 0.00128108262804 0.0
0.886771639635 -0.00159087420072 0.0
0.900574357585 -0.00739373462027 0.0
1.00500942652 0.00129060858125 0.0
0.888322089325 -0.00429755546113 0.0
1.00502630603 0.00129919909606 0.0
1.00504039565 0.00130964837419 0.0
0.905167476404 -0.00211433293062 0.0
1.00506760098 0.00133602362899 0.0
1.00546437286 0.000948373247961 0.0
1.00665637188 0.000785488877103 0.0
0.890003646836 -0.00404394944311 0.0
0.904062410662 -0.00720068303899 0.0
1.00547393269 0.000864497693246 0.0
1.00547674344 0.000930482702724 0.0
0.889928802861 -0.00410860854704 0.0
0.903332602004 -0.00743859180266 0.0
1.00549350556 0.000979773090755 0.0
0.889757115239 -0.00397823898647 0.0
0.904698054349 -0.00531580170839 0.0
1.00554951724 0.0012482997881 0.0
1.00756343902 0.000760174921744 0.0
0.898891124583 -0.00819908178765 0.0
1.00647074458 -0.000728013483519 0.0
1.00504143328 0.00124333510677 0.0
1.00588520029 0.00122596525664 0.0
1.00579290669 -0.000747484540136 0.0
1.00589134936 0.00112861495462 0.0
1.00579959042 -0.000982678068828 0.0
1.00868597714 -0.000788787426074 0.0
1.00575485957 -0.000777289209785 0.0
1.00716571507 0.000534004881906 0.0
1.01031490513 -0.000301023803035 0.0
1.00957973827 -0.00110090521433 0.0
1.00907151378 -0.000711967708421 0.0
1.00521815639 0.00166607937245 0.0
1.01198674528 7.69841443844e-06 0.0
1.00923813373 0.00236982391419 0.0
1.00520752014 0.00139047218141 0.0
1.00712849657 -0.000591028644502 0.0
1.00521806624 0.00131676014122 0.0
1.00627967228 -0.000960348780869 0.0
1.00516032739 0.00176987965413 0.0
1.00616924219 -0.000706115491599 0.0
0.897158761498 -0.00199469894056 0.0
1.00676181282 -0.000575867747881 0.0
0.896278385717 -0.00378175932171 0.0
0.882080817604 0.00157592883148 0.0
0.90968104674 0.0200931415447 0.0
1.00631726797 -0.000167969791679 0.0
0.896301411595 -0.00378415156812 0.0
0.88426894079 -0.000800200151891 0.0
1.00572444121 -0.000900806886385 0.0
1.00573751668 -0.00102935740163 0.0
0.89596350841 -0.00363752561131 0.0
0.884545686512 -0.000422339621649 0.0
1.00572800012 -0.00106275834779 0.0
1.00770832468 2.34360570185e-05 0.0
1.00574081473 -0.00118916721817 0.0
1.00586470882 -0.00115208945408 0.0
0.901732624655 -0.000392317124619 0.0
1.00573866802 -0.00119107295457 0.0
1.00572806393 -0.0011885856424 0.0
1.00572206839 -0.0011842309835 0.0
1.00571252779 -0.00117805727273 0.0
1.0057015997 -0.00117082125679 0.0
1.0056892034 -0.00116690734233 0.0
1.00563808237 -0.00120471792187 0.0
1.00502504159 -0.000459195391869 0.0
1.00569851097 -0.00123935350239 0.0
1.00623827788 -0.00105030050105 0.0
1.00446420932 -0.000178490668228 0.0
1.00788580316 -0.000128934620555 0.0
1.00760452363 -7.95524639643e-06 0.0
0.880905870051 0.000741058097885 0.0
0.888287328523 -0.00108231046286 0.0
0.888398022766 -0.00118106600281 0.0
0.888438259844 -0.00118007625332 0.0
0.88836122221 -0.00122740835118 0.0
1.00756601532 7.2228960587e-06 0.0
0.889537814064 -0.0011175253024 0.0
0.889682767049 -0.00114463070259 0.0
0.889704499837 -0.00112538160259 0.0
0.889714991076 -0.00110673930887 0.0
0.889720551976 -0.0010872019147 0.0
0.889719357738 -0.00106722371076 0.0
1.00756367966 2.46971938985e-05 0.0
0.889714906594 -0.00104899139217 0.0
0.889697223125 -0.0010433240589 0.0
0.889582680575 -0.00110392526449 0.0
0.88692379245 -0.00142019466124 0.0
1.00758123114 2.21472768063e-05 0.0
1.00759631656 2.04259138619e-05 0.0
1.00603277749 0.000532798236558 0.0
1.00761062481 1.92053657721e-05 0.0
1.0070531082 -0.000765317790362 0.0
0.984224796498 0.00479865016728 0.0
1.00762419583 2.02547848643e-05 0.0
0.997306791263 0.0232334500364 0.0
1.00930370991 -0.000694196918892 0.0
1.00714163154 0.000211401665857 0.0
1.00763873976 2.45262904747e-05 0.0
1.01163193273 -0.000675499131108 0.0
1.00767821277 2.26336987021e-05 0.0
1.00762422244 -3.21293342961e-05 0.0
1.00877997217 -9.03074617876e-05 0.0
1.00755609143 -5.55877109868e-06 0.0
1.00757359879 1.55886627985e-05 0.0
1.00828602251 -0.000590538440937 0.0
1.00770972122 8.64179399324e-05 0.0
1.00831078899 0.00017915625562 0.0
1.01040467071 -4.35519077929e-05 0.0
1.00946945319 0.000444739143684 0.0
1.00771150745 -7.51179600428e-05 0.0
1.00820092997 -0.000101453605833 0.0
1.00719865457 0.000205960969634 0.0
1.00782091322 8.24873196778e-05 0.0
1.00807445796 0.000189436129349 0.0
1.00759531376 5.03543105323e-07 0.0