# vtk DataFile Version 2.0
2D Simulation Python
ASCII
DATASET UNSTRUCTURED_GRID
FIELD FieldData 1
NODES 1 2 int
2790 1289

POINTS 2790 double
0.0 1.0 0.0
1.725 1.0 0.0
8.275 1.0 0.0
20.0 1.0 0.0
20.0 0.0 0.0
0.0 0.0 0.0
0.1916666666663293 1.0 0.0
0.3833333333324708 1.0 0.0
0.574999999998553 1.0 0.0
0.7666666666645966 1.0 0.0
0.9583333333312576 1.0 0.0
1.149999999998384 1.0 0.0
1.341666666665662 1.0 0.0
1.533333333332819 1.0 0.0
0.0958333333331406 1.0 0.0
0.2874999999994247 1.0 0.0
0.4791666666655395 1.0 0.0
0.6708333333315728 1.0 0.0
0.8624999999976626 1.0 0.0
1.054166666664886 1.0 0.0
1.245833333332057 1.0 0.0
1.437499999999343 1.0 0.0
1.629166666666455 1.0 0.0
1.92348484848444 1.0 0.0
2.121969696968978 1.0 0.0
2.320454545453434 1.0 0.0
2.518939393937826 1.0 0.0
2.717424242422235 1.0 0.0
2.915909090906411 1.0 0.0
3.1143939393908 1.0 0.0
3.312878787875129 1.0 0.0
3.511363636359531 1.0 0.0
3.709848484843827 1.0 0.0
3.90833333332816 1.0 0.0
4.106818181812215 1.0 0.0
4.305303030296804 1.0 0.0
4.503787878781365 1.0 0.0
4.702272727265711 1.0 0.0
4.900757575750005 1.0 0.0
5.099242424235156 1.0 0.0
5.297727272720327 1.0 0.0
5.496212121205663 1.0 0.0
5.694696969690998 1.0 0.0
5.89318181817668 1.0 0.0
6.09166666666213 1.0 0.0
6.290151515147423 1.0 0.0
6.488636363633031 1.0 0.0
6.687121212118713 1.0 0.0
6.885606060604342 1.0 0.0
7.084090909089381 1.0 0.0
7.282575757574369 1.0 0.0
7.481060606059355 1.0 0.0
7.679545454544343 1.0 0.0
7.878030303029329 1.0 0.0
8.076515151514705 1.0 0.0
1.824242424242199 1.0 0.0
2.022727272726695 1.0 0.0
2.221212121211181 1.0 0.0
2.41969696969563 1.0 0.0
2.618181818180092 1.0 0.0
2.816666666664316 1.0 0.0
3.015151515148624 1.0 0.0
3.213636363633039 1.0 0.0
3.412121212117267 1.0 0.0
3.610606060601583 1.0 0.0
3.809090909085975 1.0 0.0
4.007575757570153 1.0 0.0
4.206060606054539 1.0 0.0
4.404545454539001 1.0 0.0
4.603030303023853 1.0 0.0
4.801515151507715 1.0 0.0
4.999999999992074 1.0 0.0
5.198484848477777 1.0 0.0
5.396969696963081 1.0 0.0
5.595454545448261 1.0 0.0
5.793939393933949 1.0 0.0
5.992424242419331 1.0 0.0
6.190909090904785 1.0 0.0
6.389393939390224 1.0 0.0
6.587878787875795 1.0 0.0
6.786363636361617 1.0 0.0
6.984848484846598 1.0 0.0
7.183333333331875 1.0 0.0
7.381818181816625 1.0 0.0
7.580303030301849 1.0 0.0
7.778787878786936 1.0 0.0
7.977272727272114 1.0 0.0
8.175757575757618 1.0 0.0
8.473728813558951 1.0 0.0
8.672457627118133 1.0 0.0
8.871186440676855 1.0 0.0
9.069915254236154 1.0 0.0
9.268644067794812 1.0 0.0
9.467372881354057 1.0 0.0
9.666101694912944 1.0 0.0
9.864830508471961 1.0 0.0
10.06355932203108 1.0 0.0
10.26228813558986 1.0 0.0
10.46101694914916 1.0 0.0
10.65974576270777 1.0 0.0
10.85847457626706 1.0 0.0
11.05720338982589 1.0 0.0
11.25593220338497 1.0 0.0
11.45466101694402 1.0 0.0
11.65338983050287 1.0 0.0
11.85211864406215 1.0 0.0
12.05084745762035 1.0 0.0
12.24957627117938 1.0 0.0
12.44830508473794 1.0 0.0
12.64703389829659 1.0 0.0
12.84576271185557 1.0 0.0
13.04449152541379 1.0 0.0
13.24322033897301 1.0 0.0
13.44194915253121 1.0 0.0
13.6406779660903 1.0 0.0
13.83940677964874 1.0 0.0
14.03813559320751 1.0 0.0
14.23686440676681 1.0 0.0
14.43559322032663 1.0 0.0
14.63432203388679 1.0 0.0
14.8330508474463 1.0 0.0
15.0317796610067 1.0 0.0
15.23050847456608 1.0 0.0
15.42923728812645 1.0 0.0
15.62796610168606 1.0 0.0
15.82669491524602 1.0 0.0
16.02542372880584 1.0 0.0
16.22415254236431 1.0 0.0
16.42288135592496 1.0 0.0
16.62161016948498 1.0 0.0
16.82033898304518 1.0 0.0
17.01906779660567 1.0 0.0
17.2177966101654 1.0 0.0
17.41652542372565 1.0 0.0
17.61525423728425 1.0 0.0
17.81398305084494 1.0 0.0
18.01271186440355 1.0 0.0
18.21144067796387 1.0 0.0
18.41016949152309 1.0 0.0
18.6088983050827 1.0 0.0
18.80762711864282 1.0 0.0
19.00635593220153 1.0 0.0
19.20508474576211 1.0 0.0
19.40381355932072 1.0 0.0
19.60254237288117 1.0 0.0
19.80127118644013 1.0 0.0
8.374364406779554 1.0 0.0
8.573093220338519 1.0 0.0
8.771822033897509 1.0 0.0
8.970550847456504 1.0 0.0
9.169279661015429 1.0 0.0
9.368008474574502 1.0 0.0
9.566737288133496 1.0 0.0
9.765466101692677 1.0 0.0
9.964194915251602 1.0 0.0
10.16292372881015 1.0 0.0
10.36165254236967 1.0 0.0
10.56038135592849 1.0 0.0
10.75911016948728 1.0 0.0
10.95783898304648 1.0 0.0
11.15656779660554 1.0 0.0
11.35529661016447 1.0 0.0
11.55402542372345 1.0 0.0
11.75275423728253 1.0 0.0
11.95148305084111 1.0 0.0
12.15021186439983 1.0 0.0
12.34894067795883 1.0 0.0
12.54766949151722 1.0 0.0
12.74639830507616 1.0 0.0
12.94512711863486 1.0 0.0
13.14385593219357 1.0 0.0
13.34258474575207 1.0 0.0
13.54131355931069 1.0 0.0
13.7400423728695 1.0 0.0
13.93877118642822 1.0 0.0
14.13749999998697 1.0 0.0
14.33622881354686 1.0 0.0
14.53495762710678 1.0 0.0
14.73368644066656 1.0 0.0
14.93241525422655 1.0 0.0
15.13114406778625 1.0 0.0
15.32987288134641 1.0 0.0
15.52860169490635 1.0 0.0
15.7273305084661 1.0 0.0
15.9260593220261 1.0 0.0
16.12478813558534 1.0 0.0
16.32351694914468 1.0 0.0
16.52224576270527 1.0 0.0
16.72097457626511 1.0 0.0
16.91970338982543 1.0 0.0
17.11843220338561 1.0 0.0
17.31716101694539 1.0 0.0
17.51588983050497 1.0 0.0
17.71461864406449 1.0 0.0
17.91334745762401 1.0 0.0
18.11207627118383 1.0 0.0
18.31080508474307 1.0 0.0
18.50953389830311 1.0 0.0
18.70826271186271 1.0 0.0
18.90699152542239 1.0 0.0
19.10572033898203 1.0 0.0
19.30444915254171 1.0 0.0
19.50317796610107 1.0 0.0
19.70190677966065 1.0 0.0
19.90063559322003 1.0 0.0
20.0 0.7999999999999998 0.0
20.0 0.6000000000013869 0.0
20.0 0.4000000000016644 0.0
20.0 0.2000000000008322 0.0
20.0 0.9000000000000369 0.0
20.0 0.7000000000005904 0.0
20.0 0.5000000000017577 0.0
20.0 0.3000000000012483 0.0
20.0 0.1000000000004161 0.0
19.8 0.0 0.0
19.6 0.0 0.0
19.4 0.0 0.0
19.2 0.0 0.0
19.0 0.0 0.0
18.8 0.0 0.0
18.6 0.0 0.0
18.4 0.0 0.0
18.2 0.0 0.0
18.0 0.0 0.0
17.8 0.0 0.0
17.59999999999999 0.0 0.0
17.4 0.0 0.0
17.2 0.0 0.0
16.99999999999999 0.0 0.0
16.79999999999999 0.0 0.0
16.59999999999999 0.0 0.0
16.4 0.0 0.0
16.2 0.0 0.0
15.99999999999999 0.0 0.0
15.79999999999999 0.0 0.0
15.59999999999999 0.0 0.0
15.4 0.0 0.0
15.2 0.0 0.0
15.0 0.0 0.0
14.79999999999999 0.0 0.0
14.59999999999999 0.0 0.0
14.4 0.0 0.0
14.2 0.0 0.0
13.99999999999999 0.0 0.0
13.8 0.0 0.0
13.59999999999999 0.0 0.0
13.4 0.0 0.0
13.2 0.0 0.0
13.0 0.0 0.0
12.79999999999999 0.0 0.0
12.6 0.0 0.0
12.4 0.0 0.0
12.2 0.0 0.0
11.99999999999999 0.0 0.0
11.8 0.0 0.0
11.6 0.0 0.0
11.4 0.0 0.0
11.2 0.0 0.0
11.0 0.0 0.0
10.8 0.0 0.0
10.6 0.0 0.0
10.4 0.0 0.0
10.2 0.0 0.0
9.999999999999998 0.0 0.0
9.799999999999995 0.0 0.0
9.599999999999998 0.0 0.0
9.399999999999997 0.0 0.0
9.199999999999998 0.0 0.0
8.999999999999996 0.0 0.0
8.799999999999997 0.0 0.0
8.599999999999996 0.0 0.0
8.399999999999999 0.0 0.0
8.199999999999996 0.0 0.0
7.999999999999998 0.0 0.0
7.799999999999997 0.0 0.0
7.599999999999998 0.0 0.0
7.399999999999999 0.0 0.0
7.199999999999998 0.0 0.0
6.999999999999995 0.0 0.0
6.799999999999995 0.0 0.0
6.599999999999998 0.0 0.0
6.399999999999997 0.0 0.0
6.199999999999996 0.0 0.0
5.999999999999998 0.0 0.0
5.799999999999999 0.0 0.0
5.599999999999996 0.0 0.0
5.399999999999995 0.0 0.0
5.199999999999996 0.0 0.0
4.999999999999998 0.0 0.0
4.799999999999997 0.0 0.0
4.599999999999998 0.0 0.0
4.399999999999999 0.0 0.0
4.199999999999999 0.0 0.0
3.999999999999996 0.0 0.0
3.799999999999997 0.0 0.0
3.599999999999998 0.0 0.0
3.399999999999999 0.0 0.0
3.199999999999999 0.0 0.0
3.0 0.0 0.0
2.800000000000001 0.0 0.0
2.599999999999998 0.0 0.0
2.399999999999999 0.0 0.0
2.199999999999996 0.0 0.0
1.999999999999996 0.0 0.0
1.800000000000001 0.0 0.0
1.599999999999998 0.0 0.0
1.399999999999999 0.0 0.0
1.200000000000003 0.0 0.0
1.0 0.0 0.0
0.7999999999999972 0.0 0.0
0.5999999999999979 0.0 0.0
0.3999999999999986 0.0 0.0
0.1999999999999993 0.0 0.0
19.90000000000022 0.0 0.0
19.69999999999997 0.0 0.0
19.49999999999987 0.0 0.0
19.30000000000005 0.0 0.0
19.09999999999999 0.0 0.0
18.89999999999987 0.0 0.0
18.7 0.0 0.0
18.49999999999999 0.0 0.0
18.30000000000001 0.0 0.0
18.09999999999987 0.0 0.0
17.90000000000013 0.0 0.0
17.7 0.0 0.0
17.49999999999987 0.0 0.0
17.30000000000025 0.0 0.0
17.10000000000001 0.0 0.0
16.90000000000005 0.0 0.0
16.70000000000003 0.0 0.0
16.50000000000006 0.0 0.0
16.29999999999997 0.0 0.0
16.09999999999999 0.0 0.0
15.89999999999987 0.0 0.0
15.69999999999999 0.0 0.0
15.49999999999999 0.0 0.0
15.3 0.0 0.0
15.10000000000003 0.0 0.0
14.90000000000005 0.0 0.0
14.69999999999992 0.0 0.0
14.49999999999996 0.0 0.0
14.29999999999999 0.0 0.0
14.10000000000008 0.0 0.0
13.89999999999988 0.0 0.0
13.70000000000003 0.0 0.0
13.50000000000004 0.0 0.0
13.29999999999992 0.0 0.0
13.09999999999995 0.0 0.0
12.90000000000016 0.0 0.0
12.7 0.0 0.0
12.49999999999986 0.0 0.0
12.30000000000003 0.0 0.0
12.10000000000016 0.0 0.0
11.90000000000005 0.0 0.0
11.69999999999994 0.0 0.0
11.49999999999993 0.0 0.0
11.30000000000005 0.0 0.0
11.0999999999999 0.0 0.0
10.90000000000004 0.0 0.0
10.69999999999995 0.0 0.0
10.50000000000012 0.0 0.0
10.29999999999999 0.0 0.0
10.09999999999993 0.0 0.0
9.900000000000077 0.0 0.0
9.699999999999969 0.0 0.0
9.499999999999982 0.0 0.0
9.299999999999969 0.0 0.0
9.100000000000108 0.0 0.0
8.899999999999972 0.0 0.0
8.699999999999958 0.0 0.0
8.499999999999998 0.0 0.0
8.30000000000003 0.0 0.0
8.099999999999977 0.0 0.0
7.899999999999974 0.0 0.0
7.700000000000166 0.0 0.0
7.499999999999854 0.0 0.0
7.299999999999997 0.0 0.0
7.100000000000019 0.0 0.0
6.900000000000002 0.0 0.0
6.699999999999974 0.0 0.0
6.500000000000037 0.0 0.0
6.299999999999981 0.0 0.0
6.100000000000014 0.0 0.0
5.899999999999949 0.0 0.0
5.700000000000049 0.0 0.0
5.499999999999956 0.0 0.0
5.300000000000118 0.0 0.0
5.100000000000005 0.0 0.0
4.900000000000109 0.0 0.0
4.699999999999982 0.0 0.0
4.499999999999936 0.0 0.0
4.300000000000137 0.0 0.0
4.100000000000012 0.0 0.0
3.899999999999888 0.0 0.0
3.69999999999974 0.0 0.0
3.500000000000046 0.0 0.0
3.299999999999965 0.0 0.0
3.099999999999817 0.0 0.0
2.900000000000066 0.0 0.0
2.699999999999793 0.0 0.0
2.500000000000064 0.0 0.0
2.299999999999823 0.0 0.0
[...]
POINT_DATA 2790
VECTORS vector double
1.0 0.0 0.0
0.0 0.0 0.0
0.0 0.0 0.0
0.0 0.0 0.0
1.07698568863 0.0 0.0
1.0 0.0 0.0
0.0 0.0 0.0
0.0 0.0 0.0
0.0 0.0 0.0
0.0 0.0 0.0
0.0 0.0 0.0
0.0 0.0 0.0
0.0 0.0 0.0
0.0 0.0 0.0
0.0 0.0 0.0
0.0 0.0 0.0
0.0 0.0 0.0
0.0 0.0 0.0
0.0 0.0 0.0
0.0 0.0 0.0
0.0 0.0 0.0
0.0 0.0 0.0
0.0 0.0 0.0
0.0 0.0 0.0
0.0 0.0 0.0
0.0 0.0 0.0
0.0 0.0 0.0
0.0 0.0 0.0
0.0 0.0 0.0
0.0 0.0 0.0
0.0 0.0 0.0
0.0 0.0 0.0
0.0 0.0 0.0
0.0 0.0 0.0
0.0 0.0 0.0
0.0 0.0 0.0
0.0 0.0 0.0
0.0 0.0 0.0
0.0 0.0 0.0
0.0 0.0 0.0
0.0 0.0 0.0
0.0 0.0 0.0
0.0 0.0 0.0
0.0 0.0 0.0
0.0 0.0 0.0
0.0 0.0 0.0
0.0 0.0 0.0
0.0 0.0 0.0
0.0 0.0 0.0
0.0 0.0 0.0
0.0 0.0 0.0
0.0 0.0 0.0
0.0 0.0 0.0
0.0 0.0 0.0
0.0 0.0 0.0
0.0 0.0 0.0
0.0 0.0 0.0
0.0 0.0 0.0
0.0 0.0 0.0
0.0 0.0 0.0
0.0 0.0 0.0
0.0 0.0 0.0
0.0 0.0 0.0
0.0 0.0 0.0
0.0 0.0 0.0
0.0 0.0 0.0
0.0 0.0 0.0
0.0 0.0 0.0
0.0 0.0 0.0
0.0 0.0 0.0
0.0 0.0 0.0
0.0 0.0 0.0
0.0 0.0 0.0
0.0 0.0 0.0
0.0 0.0 0.0
0.0 0.0 0.0
0.0 0.0 0.0
0.0 0.0 0.0
0.0 0.0 0.0
0.0 0.0 0.0
0.0 0.0 0.0
0.0 0.0 0.0
0.0 0.0 0.0
0.0 0.0 0.0
0.0 0.0 0.0
0.0 0.0 0.0
0.0 0.0 0.0
0.0 0.0 0.0
0.0 0.0 0.0
0.0 0.0 0.0
0.0 0.0 0.0
0.0 0.0 0.0
0.0 0.0 0.0
0.0 0.0 0.0
0.0 0.0 0.0
0.0 0.0 0.0
0.0 0.0 0.0
0.0 0.0 0.0
0.0 0.0 0.0
0.0 0.0 0.0
0.0 0.0 0.0
0.0 0.0 0.0
0.0 0.0 0.0
0.0 0.0 0.0
0.0 0.0 0.0
0.0 0.0 0.0
0.0 0.0 0.0
0.0 0.0 0.0
0.0 0.0 0.0
0.0 0.0 0.0
0.0 0.0 0.0
0.0 0.0 0.0
0.0 0.0 0.0
0.0 0.0 0.0
0.0 0.0 0.0
0.0 0.0 0.0
0.0 0.0 0.0
0.0 0.0 0.0
0.0 0.0 0.0
0.0 0.0 0.0
0.0 0.0 0.0
0.0 0.0 0.0
0.0 0.0 0.0
0.0 0.0 0.0
0.0 0.0 0.0
0.0 0.0 0.0
0.0 0.0 0.0
0.0 0.0 0.0
0.0 0.0 0.0
0.0 0.0 0.0
0.0 0.0 0.0
0.0 0.0 0.0
0.0 0.0 0.0
0.0 0.0 0.0
0.0 0.0 0.0
0.0 0.0 0.0
0.0 0.0 0.0
0.0 0.0 0.0
0.0 0.0 0.0
0.0 0.0 0.0
0.0 0.0 0.0
0.0 0.0 0.0
0.0 0.0 0.0
0.0 0.0 0.0
0.0 0.0 0.0
0.0 0.0 0.0
0.0 0.0 0.0
0.0 0.0 0.0
0.0 0.0 0.0
0.0 0.0 0.0
0.0 0.0 0.0
0.0 0.0 0.0
0.0 0.0 0.0
0.0 0.0 0.0
0.0 0.0 0.0
0.0 0.0 0.0
0.0 0.0 0.0
0.0 0.0 0.0
0.0 0.0 0.0
0.0 0.0 0.0
0.0 0.0 0.0
0.0 0.0 0.0
0.0 0.0 0.0
0.0 0.0 0.0
0.0 0.0 0.0
0.0 0.0 0.0
0.0 0.0 0.0
0.0 0.0 0.0
0.0 0.0 0.0
0.0 0.0 0.0
0.0 0.0 0.0
0.0 0.0 0.0
0.0 0.0 0.0
0.0 0.0 0.0
0.0 0.0 0.0
0.0 0.0 0.0
0.0 0.0 0.0
0.0 0.0 0.0
0.0 0.0 0.0
0.0 0.0 0.0
0.0 0.0 0.0
0.0 0.0 0.0
0.0 0.0 0.0
0.0 0.0 0.0
0.0 0.0 0.0
0.0 0.0 0.0
0.0 0.0 0.0
0.0 0.0 0.0
0.0 0.0 0.0
0.0 0.0 0.0
0.0 0.0 0.0
0.0 0.0 0.0
0.0 0.0 0.0
0.0 0.0 0.0
0.0 0.0 0.0
0.0 0.0 0.0
0.0 0.0 0.0
0.0 0.0 0.0
0.0 0.0 0.0
0.0 0.0 0.0
0.0 0.0 0.0
0.0 0.0 0.0
0.0 0.0 0.0
0.0 0.0 0.0
0.0 0.0 0.0
1.15123488201 -0.00606316708023 0.0
1.10724760173 -0.00159984375054 0.0
1.08591685692 0.000419722034581 0.0
1.0793368064 0.000154163122128 0.0
0.642337438063 -0.00968326192046 0.0
1.12332625065 0.00400103132952 0.0
1.09289522054 -0.0007234819436 0.0
1.08202907968 0.000117112720978 0.0
1.07854493757 0.000377462215601 0.0
1.07552656034 0.0 0.0
1.07158655383 0.0 0.0
1.06683026608 0.0 0.0
1.06248955851 0.0 0.0
1.05869252294 0.0 0.0
1.05714580851 0.0 0.0
1.05616550495 0.0 0.0
1.05545480818 0.0 0.0
1.05531847226 0.0 0.0
1.05496769287 0.0 0.0
1.05451198081 0.0 0.0
1.05459161722 0.0 0.0
1.05448015598 0.0 0.0
1.05427549894 0.0 0.0
1.05380893756 0.0 0.0
1.05379201686 0.0 0.0
1.05426294699 0.0 0.0
1.05382144195 0.0 0.0
1.05377227467 0.0 0.0
1.05428285723 0.0 0.0
1.05382303204 0.0 0.0
1.05378000763 0.0 0.0
1.05429550004 0.0 0.0
1.05383559821 0.0 0.0
1.053790371 0.0 0.0
1.05430523634 0.0 0.0
1.05384436709 0.0 0.0
1.05379594982 0.0 0.0
1.05430899502 0.0 0.0
1.05384490208 0.0 0.0
1.05378908364 0.0 0.0
1.0542933122 0.0 0.0
1.05382149228 0.0 0.0
1.05376282089 0.0 0.0
1.05427614309 0.0 0.0
1.05381915418 0.0 0.0
1.05373588649 0.0 0.0
1.05411394825 0.0 0.0
1.0533863216 0.0 0.0
1.05301853684 0.0 0.0
1.05377857969 0.0 0.0
1.0533186145 0.0 0.0
1.0530155398 0.0 0.0
1.05380297822 0.0 0.0
1.05336975528 0.0 0.0
1.05310723121 0.0 0.0
1.05402171041 0.0 0.0
1.05384235567 0.0 0.0
1.05399217563 0.0 0.0
1.05565003607 0.0 0.0
1.05681388072 0.0 0.0
1.0588251831 0.0 0.0
1.06229347374 0.0 0.0
1.06688785329 0.0 0.0
1.06996061369 0.0 0.0
1.0712305757 0.0 0.0
1.07041375784 0.0 0.0
1.06828066981 0.0 0.0
1.06406225583 0.0 0.0
1.06026619307 0.0 0.0
1.05839543819 0.0 0.0
1.05638933238 0.0 0.0
1.05509110637 0.0 0.0
1.05551264578 0.0 0.0
1.05515173206 0.0 0.0
1.05532110692 0.0 0.0
1.05757997242 0.0 0.0
1.05973413338 0.0 0.0
1.0629103027 0.0 0.0
1.06845935691 0.0 0.0
1.07538563174 0.0 0.0
1.08002972629 0.0 0.0
1.08246503774 0.0 0.0
1.08045038454 0.0 0.0
1.07523738607 0.0 0.0
1.069742774 0.0 0.0
1.06360784524 0.0 0.0
1.05939488892 0.0 0.0
1.05758279226 0.0 0.0
1.05666413233 0.0 0.0
1.05509926797 0.0 0.0
1.05507667238 0.0 0.0
1.05542536531 0.0 0.0
1.05480285599 0.0 0.0
1.05570901894 0.0 0.0
1.05719331718 0.0 0.0
1.05809609335 0.0 0.0
1.06115333563 0.0 0.0
1.06457052584 0.0 0.0
1.06630614678 0.0 0.0
1.06835295838 0.0 0.0
1.06962606169 0.0 0.0
1.06886065424 0.0 0.0
1.06821153959 0.0 0.0
1.06635868437 0.0 0.0
1.06200789328 0.0 0.0
1.06128195455 0.0 0.0
1.03826123354 0.0 0.0
1.0043463506 0.0 0.0
1.07757327825 0.0 0.0
1.07438831107 0.0 0.0
1.07012260281 0.0 0.0
1.06498111512 0.0 0.0
1.06099110283 0.0 0.0
1.05847686126 0.0 0.0
1.05708957807 0.0 0.0
1.05610871035 0.0 0.0
1.05568492047 0.0 0.0
1.05549245045 0.0 0.0
1.05503785694 0.0 0.0
1.05485259666 0.0 0.0
1.05490677295 0.0 0.0
1.05470006477 0.0 0.0
1.05481603028 0.0 0.0
1.05447070375 0.0 0.0
1.05480677678 0.0 0.0
1.05487120726 0.0 0.0
1.05446709055 0.0 0.0
1.05485400467 0.0 0.0
1.05489864716 0.0 0.0
1.05447981848 0.0 0.0
1.05486595054 0.0 0.0
1.05490943234 0.0 0.0
1.05448988192 0.0 0.0
1.05487247153 0.0 0.0
1.05491645121 0.0 0.0
1.05449528835 0.0 0.0
1.05487343228 0.0 0.0
1.05491611172 0.0 0.0
1.05449046875 0.0 0.0
1.05485897977 0.0 0.0
1.05489434987 0.0 0.0
1.05446317326 0.0 0.0
1.05483371536 0.0 0.0
1.05485939872 0.0 0.0
1.05446079956 0.0 0.0
1.05471803251 0.0 0.0
1.05465675661 0.0 0.0
1.05409808586 0.0 0.0
1.05444225087 0.0 0.0
1.05461189964 0.0 0.0
1.05407845216 0.0 0.0
1.05444891071 0.0 0.0
1.05463944375 0.0 0.0
1.05414489888 0.0 0.0
1.05458311151 0.0 0.0
1.0549505695 0.0 0.0
1.05481912198 0.0 0.0
1.05583483302 0.0 0.0
1.05729373674 0.0 0.0
1.05877329046 0.0 0.0
1.06195666164 0.0 0.0
1.06517565835 0.0 0.0
1.06867845683 0.0 0.0
1.07167517423 0.0 0.0
1.0719656571 0.0 0.0
1.07051465513 0.0 0.0
1.06725507942 0.0 0.0
1.06306528047 0.0 0.0
1.06031487197 0.0 0.0
1.05837432301 0.0 0.0
1.05660118259 0.0 0.0
1.05631191154 0.0 0.0
1.05632470533 0.0 0.0
1.0560966142 0.0 0.0
1.05746198971 0.0 0.0
1.05969358628 0.0 0.0
1.06238248056 0.0 0.0
1.06720172631 0.0 0.0
1.07258771999 0.0 0.0
1.07822056587 0.0 0.0
1.08216222179 0.0 0.0
1.08247416573 0.0 0.0
1.07865916986 0.0 0.0
1.0729318658 0.0 0.0
1.06709369184 0.0 0.0
1.0627486175 0.0 0.0
1.05942673328 0.0 0.0
1.05809168108 0.0 0.0
1.05686788876 0.0 0.0
1.05592831782 0.0 0.0
1.05622043866 0.0 0.0
1.05612644165 0.0 0.0
1.05611427592 0.0 0.0
1.05747038095 0.0 0.0
1.05869295723 0.0 0.0
1.06054444793 0.0 0.0
1.06391040259 0.0 0.0
1.06650996342 0.0 0.0
1.06828044422 0.0 0.0
1.07002320949 0.0 0.0
1.07026984944 0.0 0.0
1.06945649807 0.0 0.0
1.06812959145 0.0 0.0
1.06477162129 0.0 0.0
1.06181107056 0.0 0.0
1.05274189051 0.0 0.0
1.01824962119 0.0 0.0
1.00020466428 0.0 0.0
1.0 0.0 0.0
1.0 0.0 0.0
1.0 0.0 0.0
1.0 0.0 0.0
1.0 0.0 0.0
1.0 0.0 0.0
1.0 0.0 0.0
1.0 0.0 0.0
1.0 0.0 0.0
1.08867313527 -0.017799223241 0.0
1.07378301712 -0.0024489957537 0.0
1.07347698545 0.00221033173461 0.0
1.06305342985 -0.0142667842503 0.0
1.05609564667 -0.000562297000045 0.0
1.05653108826 -0.0014643378843 0.0
1.05622099227 0.000318470065071 0.0
1.05649694999 0.000400474691381 0.0
1.05643829993 0.000401015665897 0.0
1.05644359064 0.000399885314188 0.0
1.05644780911 0.000411439695213 0.0
1.05644906328 0.000422589572082 0.0
1.056449133 0.00042805822578 0.0
1.05648201259 0.000453045265849 0.0
1.0566100795 0.000428250453189 0.0
1.05687926348 0.00121242643586 0.0
1.05688518532 0.00120639608014 0.0
1.05685767425 0.00126635662599 0.0
1.05668395815 0.001751649533 0.0
1.06393318885 -0.0120203006928 0.0
1.06243175639 0.0120151433505 0.0
1.05747625847 -0.00142347422567 0.0
1.05727593343 0.00708888273864 0.0
1.05722932969 0.00232056904538 0.0
1.05689584618 0.00101507101461 0.0
1.06761910484 0.0115570179544 0.0
1.0573537112 0.000700379108539 0.0
1.05884826717 0.0103344708228 0.0
1.05769550498 -0.00229701687651 0.0
1.0745496192 0.0220928814815 0.0
1.06688338449 -0.0169500629838 0.0
1.08839476773 -0.00529560593837 0.0
1.10969417893 -0.017009895428 0.0
1.09145519107 -0.0318105206354 0.0
1.17160550482 -0.112730413306 0.0
1.06045111537 -0.00586352879632 0.0
1.05629944601 -0.00107552391014 0.0
1.06581295711 0.00839278857929 0.0
1.05586533089 0.000273508768353 0.0
1.05613947833 0.00213238106288 0.0
1.06834267282 0.00457871490188 0.0
1.05745369598 0.00294937523002 0.0
1.05587760319 -0.000562863984881 0.0
1.05870837156 -0.00408544649707 0.0
1.0616570989 0.0054114717289 0.0
1.05530166914 0.00141757116834 0.0
1.05470163312 0.000158884175516 0.0
1.05464131141 1.3704042821e-06 0.0
1.05463683677 -1.3656429005e-05 0.0
1.05470596282 -9.85972090808e-05 0.0
1.05474510624 0.000102488501389 0.0
1.05474465117 0.000107886902855 0.0
1.09453486125 -0.000961055631291 0.0
1.05475622523 0.000136881338267 0.0
1.05475471906 0.000142736434481 0.0
1.05474924525 0.000146755845879 0.0
1.07186739125 0.000202764882621 0.0
1.05474098593 0.000151951100495 0.0
1.09035925406 0.00106313942508 0.0
1.0704328623 -0.00555384508104 0.0
1.05470741157 0.000171755995576 0.0
1.05469467387 0.000103729351213 0.0
1.05444613951 -0.0138987274767 0.0
1.0546985418 -0.000227580539893 0.0
1.05663080161 -0.0034118980329 0.0
1.05518810655 -0.0128748164143 0.0
1.05653460337 -0.00599673436342 0.0
1.06746972029 0.0121716496309 0.0
1.08759684431 0.0103514961982 0.0
1.05675769676 -0.00439905312098 0.0
1.05612586893 -0.00332180511135 0.0
1.0550086546 -0.00099399008879 0.0
1.05846139486 -0.00558622527015 0.0
1.05788537449 -0.0100252114109 0.0
1.06491862196 0.00885790428925 0.0
1.05646237081 -0.00444132642038 0.0
1.05841022724 -0.00518614162422 0.0
1.0585481593 -0.00532633752062 0.0
1.05857980278 -0.00533793241903 0.0
1.05821661944 -0.0053118337738 0.0
1.05777796985 -0.00518032670568 0.0
1.05774767697 -0.0052526880586 0.0
1.05773623201 -0.00524317920488 0.0
1.0577373693 -0.00523330162148 0.0
1.05773645644 -0.00522492829839 0.0
1.05593138418 -0.000247525806686 0.0
1.05773138646 -0.00521993846216 0.0
1.05775068626 -0.00519488070733 0.0
1.05774848715 -0.00521394468067 0.0
1.05710361928 -0.00520144512131 0.0
1.05808639151 -0.00474121115333 0.0
1.0314943187 -0.0435299835577 0.0
1.07665560914 -0.00772599077205 0.0
1.07470237071 0.00546370031486 0.0
1.08663618614 0.00799113709849 0.0
1.07809840416 -0.0108814494564 0.0
1.07107610496 -0.00666407184985 0.0
1.07949436809 -0.029739214328 0.0
1.10399575273 0.031274055306 0.0
1.14404933198 0.0681123767139 0.0
1.09134296892 -0.0556773894778 0.0
1.13275157851 0.0128746757269 0.0
1.09726178746 -0.00422531556634 0.0
1.06603143602 -0.00832403451159 0.0
1.05447967334 -3.50394849371e-05 0.0
1.05451261122 -8.29436387692e-06 0.0
1.07070465722 -0.00112742668503 0.0
1.05490931095 -9.48684550804e-05 0.0
1.05678709167 -0.00988534128759 0.0
1.05455630541 4.03656190811e-05 0.0
1.05493863373 -6.3812492162e-05 0.0
1.0549818071 -7.13214739775e-05 0.0
1.05494348435 0.00054422494095 0.0
1.09884215777 -0.00192469292579 0.0
1.05498341199 -6.32434420509e-05 0.0
1.05865466879 0.00321075198582 0.0
1.05497700372 -6.01662035281e-05 0.0
1.05496615334 -5.84930156749e-05 0.0
1.06966219139 0.0019580669794 0.0
1.05495372489 -4.57560269263e-05 0.0
1.05487249637 -4.20743678751e-05 0.0
1.05484200577 -0.000102759381716 0.0
1.10386184931 -0.00711869710678 0.0
1.06236972519 -0.0046562316757 0.0
1.05545787947 -0.000479325291446 0.0
1.09645809341 0.0190686541905 0.0
1.09568216549 0.0137330414613 0.0
1.05642270532 -0.00106187700746 0.0
1.10163088855 0.0183937930583 0.0
1.0566232991 -0.00117607504604 0.0
1.06087088827 0.00374608499065 0.0
1.10168313174 0.0183612654695 0.0
1.10161785167 0.0183500899573 0.0
1.10159874442 0.0183203377834 0.0
1.10157228127 0.0182991049742 0.0
1.05590098558 0.000479272225793 0.0
1.05630330626 0.000749328443201 0.0
1.10154315614 0.0182795709193 0.0
1.10151671734 0.0182584585639 0.0
1.10150173638 0.0182376937682 0.0
1.1015625744 0.0182700157857 0.0
1.1033280424 0.0187086244519 0.0
1.06135096257 0.00481165001756 0.0
1.05608200839 -0.000317093148643 0.0
1.10314563625 0.0185467384162 0.0
1.1030368506 0.018553669193 0.0
1.08398896539 -0.0117065137535 0.0
1.10241754746 0.0186564103563 0.0
1.09527402665 0.0362311713303 0.0
1.09965056747 0.0151629174952 0.0
1.09979981007 0.0177944689313 0.0
1.09891810294 0.0169358192747 0.0
1.08738524708 0.0247396383006 0.0
1.10026502756 0.0167717746219 0.0
1.08406129933 0.0289904549035 0.0
1.09988012283 0.0139296518927 0.0
1.07857246589 0.0519207029127 0.0
1.09746404462 -0.0172775032239 0.0
1.1007986274 0.0350732367675 0.0
1.08466204604 -0.00206233785546 0.0
1.05847065017 -0.00253040549128 0.0
1.06732339435 -0.00734922465762 0.0
1.07407590669 0.00833557999117 0.0
1.07460156072 -0.002120103558 0.0
1.06646085775 0.00488697185542 0.0
1.17370149879 -0.032634625223 0.0
1.22750808527 -0.0586576248697 0.0
1.0621966451 -0.00466901590353 0.0
1.03868231085 -0.0564497517515 0.0
1.09052476253 -0.0127290879614 0.0
1.07318718757 -0.0130821618148 0.0
1.04273930237 -0.0167732945879 0.0
1.09001262675 -0.0382559753638 0.0
1.08493880773 -0.0555447700581 0.0
1.12756729045 0.025078824911 0.0
1.16221540325 -0.0499114777978 0.0
1.05443421976 8.6742769096e-06 0.0
1.05442513789 4.26783899667e-05 0.0
1.05468680773 6.93635439599e-05 0.0
1.05444978724 5.45613628092e-05 0.0
1.27807979885 -0.282849084764 0.0
1.05471379667 0.000244103678615 0.0
1.05471116134 7.55081313032e-05 0.0
1.05681107173 0.00145300749931 0.0
1.0547404255 8.72844035672e-05 0.0
1.05473996379 9.15151524157e-05 0.0
1.06386875568 0.00266033566018 0.0
1.05779577756 -0.00132331018392 0.0
1.06898263102 -0.00186285039478 0.0
1.05591812776 6.6081722609e-05 0.0
1.05699700271 0.000848231465266 0.0
1.05473269651 9.36946646058e-05 0.0
1.05886848059 0.00230124657221 0.0
1.05593505198 -9.89386491091e-05 0.0
1.07017955856 0.000706045864179 0.0
1.05749164664 -0.00114528826454 0.0
1.05472196822 9.54834541192e-05 0.0
1.05469273626 0.000102125113604 0.0
1.05466782809 6.46095408317e-05 0.0
1.05480914296 -6.9252425513e-05 0.0
1.05574593543 -0.00023385865127 0.0
1.05769258856 -0.00171756141381 0.0
1.08559890475 0.00915463173911 0.0
1.09551476839 -0.00813036732109 0.0
1.08520740417 0.0142149502395 0.0
1.09985509862 0.00142652431959 0.0
1.0821153375 0.0144917490663 0.0
1.08788124041 -0.0017446506517 0.0
1.08836933826 -0.00214444641899 0.0
1.08829479037 -0.00214620344487 0.0
1.0967032781 0.0221932661147 0.0
1.08823147145 -0.00214556974449 0.0
1.08818571813 -0.00214170577984 0.0
1.08814621378 -0.00214035199576 0.0
1.05744943283 0.000719421901893 0.0
1.0777630712 -0.0218011618329 0.0
1.08811552238 -0.00214123264351 0.0
1.05454464783 -0.00337719482943 0.0
1.0880943237 -0.00214025881282 0.0
1.08802736837 -0.00202625876457 0.0
1.08809362096 -0.00236232727597 0.0
1.08804797575 -0.00244175353213 0.0
1.05508621074 0.00126157152713 0.0
1.08801600772 -0.00243485041248 0.0
1.05530740673 0.00147313607853 0.0
1.08786629145 -0.00655144096262 0.0
1.08779009019 -0.00238905872894 0.0
1.05530087054 0.00152436555717 0.0
1.09287945913 -0.0291283514966 0.0
1.05530710944 0.0015043411916 0.0
1.08337311729 -0.00145603358102 0.0
1.08373414006 -0.00502149941675 0.0
1.05531071251 0.00150239732037 0.0
1.08456924261 -0.0197570300565 0.0
1.06972075596 0.0114277679484 0.0
1.05531036135 0.00149880332623 0.0
1.07780036592 0.0179661192474 0.0
1.05530785206 0.00149208566313 0.0
1.0553298685 0.00144399585888 0.0
1.08465567092 -0.00437275203883 0.0
1.05541157198 0.0014500025957 0.0
1.05506251829 0.00108191775677 0.0
1.07017013121 0.00908961809586 0.0
1.08519048949 -0.0181562678266 0.0
1.084188599 -0.00345043417446 0.0
1.05508977111 0.000967666821612 0.0
1.05507209557 0.000996830618672 0.0
1.08703054476 -0.0188448667144 0.0
1.08029719979 -0.00339764294336 0.0
1.05501836884 0.00123613516542 0.0
1.08631483608 -0.0203399555916 0.0
1.06776074198 0.0170096344494 0.0
1.0545618536 0.00362228512965 0.0
1.06314412606 0.00913022851843 0.0
1.08648073675 -0.0233565203544 0.0
1.07279517397 -0.0146970362416 0.0
1.05651913873 -0.00287108096663 0.0
1.05591238921 0.000659981922117 0.0
1.05722334948 0.00104483218281 0.0
1.05497024637 0.00540327869037 0.0
1.05738800239 -0.00142943212507 0.0
1.06675320733 0.0139757057244 0.0
1.05762185468 -0.00336216083057 0.0
1.05966654341 -0.0116019608051 0.0
1.07481928984 -0.000239177082825 0.0
1.07529406264 -0.00345849489974 0.0
1.07873429838 -0.00780413826487 0.0
1.05672397873 -0.00492396565299 0.0
1.07428559623 0.00155058069196 0.0
1.0737191264 0.00580116727946 0.0
1.05590448188 9.3522011097e-05 0.0
1.06363427942 0.0101718078249 0.0
1.0558225443 0.00160931000857 0.0
1.05645630827 3.2592377712e-05 0.0
1.05634420357 0.00671536599642 0.0
1.05736376336 -0.00247141005238 0.0
1.0832873762 -0.00330731314955 0.0
1.05859744359 -0.00802813457867 0.0
1.0854280292 -0.000320921542473 0.0
1.06618469404 0.00227657800401 0.0
1.0967114675 -0.000453108199261 0.0
1.06072058206 0.00652429084234 0.0
1.08554975225 0.000688789936228 0.0
1.09062414589 -0.0171786692843 0.0
1.05649766579 -0.000452095010579 0.0
1.05681283576 -0.00148406743204 0.0
1.08150302848 0.00412634193037 0.0
1.09133217044 -0.0174724874941 0.0
1.05684899362 -0.00160550462625 0.0
1.05492469743 -0.000267097936603 0.0
1.05685718152 -0.00161104450134 0.0
1.05661997001 -0.00190258134422 0.0
1.09283543912 -0.0126768843332 0.0
1.05675793342 -0.00162572960184 0.0
1.05672226852 -0.00166015674596 0.0
1.05671441763 -0.00163492307198 0.0
1.05671373275 -0.00161707735914 0.0
1.05671065579 -0.00160019140924 0.0
1.05670547336 -0.00157797373443 0.0
1.05672526316 -0.00153414982078 0.0
1.05746342969 -0.00108906771626 0.0
1.05664394424 -0.00152714335889 0.0
1.05641293463 -0.0020935066757 0.0
1.05834050014 -0.0107449476739 0.0
1.06671867927 -0.00347280628787 0.0
1.05462229486 -2.90059671772e-05 0.0
1.07349429224 -0.00368213808051 0.0
1.09145740001 -0.018007345184 0.0
1.09275745173 -0.0175332797312 0.0
1.09285706857 -0.0175915712608 0.0
1.09289571602 -0.0175858162753 0.0
1.05457039504 -2.94772316433e-05 0.0
1.09282605087 -0.0176522395885 0.0
1.09262265071 -0.0176242084442 0.0
1.09265661909 -0.0176753866705 0.0
1.09268549945 -0.0176981299118 0.0
1.09272748912 -0.0177185342896 0.0
1.09277746304 -0.0177399062815 0.0
1.05461683006 -3.80307532771e-05 0.0
1.09283247996 -0.0177614496255 0.0
1.09291668688 -0.0177874874037 0.0
1.09296930547 -0.0178001855202 0.0
1.09494744308 -0.0146632288474 0.0
1.05462658719 -4.19459167139e-05 0.0
1.05463500343 -4.15065112968e-05 0.0
1.07352294079 -0.00571529056866 0.0
1.05463831932 -4.21759155731e-05 0.0
1.08006384073 0.00492169693349 0.0
1.06894705536 -0.0191855982536 0.0
1.05462779549 -4.8542988641e-05 0.0
1.00827648624 -0.0112920678646 0.0
1.0648652506 -0.00406660355405 0.0
1.0559086653 -0.000380935684452 0.0
1.05460447199 -3.98445415893e-05 0.0
1.13258008604 -0.0251648920966 0.0
1.05452940377 -0.000119656139247 0.0
1.05436853005 -4.37287377217e-05 0.0
1.07020414537 0.00323718867518 0.0
1.0543800975 -2.90728249184e-05 0.0
1.05449958176 4.32877050616e-05 0.0
1.07759461153 -0.0027769193603 0.0
1.05549574572 0.000559043606007 0.0
1.06115251477 0.00220697185643 0.0
1.07047375161 -8.27902947779e-05 0.0
1.06722518043 0.00176269953066 0.0
1.06019899003 -0.00195536107266 0.0
1.06558486209 0.00338317558603 0.0
1.0612292763 -0.00233152870727 0.0
1.05618664334 -0.000324114323583 0.0
1.05875129285 0.00141367058319 0.0
1.0546879276 0.000255156596388 0.0
1.05465489025 0.00022803979329 0.0
1.07105119025 -0.00213649640329 0.0
1.0546888811 0.000256071847707 0.0
1.05465943273 0.000212530782161 0.0
1.05685223897 0.000879577566554 0.0
1.05601678062 0.000183530296928 0.0
1.07129256922 -0.00258461180428 0.0
1.05468508538 0.000253022429753 0.0