# vtk DataFile Version 2.0
2D Simulation Python
ASCII
DATASET UNSTRUCTURED_GRID
FIELD FieldData 1
NODES 1 2 int
1422 2620

POINTS 1422 double
0.0 1.0 0.0
1.725 1.0 0.0
8.275 1.0 0.0
10.0 1.0 0.0
10.0 0.0 0.0
0.0 0.0 0.0
0.09583333333314978 1.0 0.0
0.1916666666663293 1.0 0.0
0.2874999999994224 1.0 0.0
0.3833333333324708 1.0 0.0
0.4791666666655263 1.0 0.0
0.574999999998553 1.0 0.0
0.6708333333315749 1.0 0.0
0.7666666666645966 1.0 0.0
0.8624999999976839 1.0 0.0
0.9583333333312576 1.0 0.0
1.054166666664865 1.0 0.0
1.149999999998384 1.0 0.0
1.245833333332023 1.0 0.0
1.341666666665662 1.0 0.0
1.437499999999301 1.0 0.0
1.533333333332819 1.0 0.0
1.629166666666443 1.0 0.0
1.824242424242242 1.0 0.0
1.92348484848444 1.0 0.0
2.022727272726717 1.0 0.0
2.121969696968978 1.0 0.0
2.221212121211135 1.0 0.0
2.320454545453434 1.0 0.0
2.419696969695623 1.0 0.0
2.518939393937826 1.0 0.0
2.618181818180112 1.0 0.0
2.717424242422235 1.0 0.0
2.816666666664341 1.0 0.0
2.915909090906411 1.0 0.0
3.015151515148588 1.0 0.0
3.1143939393908 1.0 0.0
3.213636363632884 1.0 0.0
3.312878787875129 1.0 0.0
3.412121212117286 1.0 0.0
3.511363636359531 1.0 0.0
3.610606060601614 1.0 0.0
3.709848484843827 1.0 0.0
3.809090909086003 1.0 0.0
3.90833333332816 1.0 0.0
4.007575757570265 1.0 0.0
4.106818181812215 1.0 0.0
4.20606060605463 1.0 0.0
4.305303030296804 1.0 0.0
4.404545454538924 1.0 0.0
4.503787878781365 1.0 0.0
4.603030303023349 1.0 0.0
4.702272727265711 1.0 0.0
4.80151515150799 1.0 0.0
4.900757575750005 1.0 0.0
4.999999999992499 1.0 0.0
5.099242424235156 1.0 0.0
5.198484848477834 1.0 0.0
5.297727272720327 1.0 0.0
5.396969696963127 1.0 0.0
5.496212121205663 1.0 0.0
5.595454545448268 1.0 0.0
5.694696969690998 1.0 0.0
5.79393939393367 1.0 0.0
5.89318181817668 1.0 0.0
5.992424242419174 1.0 0.0
6.09166666666213 1.0 0.0
6.190909090904857 1.0 0.0
6.290151515147423 1.0 0.0
6.389393939390537 1.0 0.0
6.488636363633031 1.0 0.0
6.587878787875884 1.0 0.0
6.687121212118713 1.0 0.0
6.786363636361205 1.0 0.0
6.885606060604342 1.0 0.0
6.984848484846887 1.0 0.0
7.084090909089381 1.0 0.0
7.183333333331875 1.0 0.0
7.282575757574369 1.0 0.0
7.381818181816861 1.0 0.0
7.481060606059355 1.0 0.0
7.580303030301849 1.0 0.0
7.679545454544343 1.0 0.0
7.778787878786837 1.0 0.0
7.878030303029329 1.0 0.0
7.977272727271822 1.0 0.0
8.076515151514705 1.0 0.0
8.175757575757507 1.0 0.0
8.370833333332062 1.0 0.0
8.46666666666447 1.0 0.0
8.562499999996877 1.0 0.0
8.658333333329285 1.0 0.0
8.754166666662387 1.0 0.0
8.84999999999549 1.0 0.0
8.945833333328592 1.0 0.0
9.041666666661694 1.0 0.0
9.137499999994796 1.0 0.0
9.233333333327899 1.0 0.0
9.329166666661424 1.0 0.0
9.42499999999549 1.0 0.0
9.52083333332944 1.0 0.0
9.616666666663775 1.0 0.0
9.712499999997572 1.0 0.0
9.808333333331985 1.0 0.0
9.904166666665859 1.0 0.0
10.0 0.8999999999995836 0.0
10.0 0.7999999999999998 0.0
10.0 0.7000000000006934 0.0
10.0 0.6000000000013869 0.0
10.0 0.5000000000020587 0.0
10.0 0.4000000000016644 0.0
10.0 0.3000000000012483 0.0
10.0 0.2000000000008322 0.0
10.0 0.100000000000416 0.0
9.9 0.0 0.0
9.799999999999999 0.0 0.0
9.7 0.0 0.0
9.6 0.0 0.0
9.499999999999998 0.0 0.0
9.399999999999999 0.0 0.0
9.299999999999999 0.0 0.0
9.2 0.0 0.0
9.099999999999998 0.0 0.0
8.999999999999998 0.0 0.0
8.899999999999999 0.0 0.0
8.799999999999997 0.0 0.0
8.699999999999998 0.0 0.0
8.599999999999998 0.0 0.0
8.499999999999996 0.0 0.0
8.399999999999997 0.0 0.0
8.299999999999997 0.0 0.0
8.199999999999998 0.0 0.0
8.099999999999998 0.0 0.0
7.999999999999997 0.0 0.0
7.899999999999997 0.0 0.0
7.799999999999997 0.0 0.0
7.699999999999998 0.0 0.0
7.599999999999998 0.0 0.0
7.499999999999998 0.0 0.0
7.399999999999997 0.0 0.0
7.299999999999997 0.0 0.0
7.199999999999998 0.0 0.0
7.099999999999998 0.0 0.0
6.999999999999997 0.0 0.0
6.899999999999998 0.0 0.0
6.799999999999997 0.0 0.0
6.699999999999998 0.0 0.0
6.599999999999998 0.0 0.0
6.499999999999998 0.0 0.0
6.399999999999997 0.0 0.0
6.299999999999998 0.0 0.0
6.199999999999998 0.0 0.0
6.099999999999998 0.0 0.0
5.999999999999997 0.0 0.0
5.899999999999998 0.0 0.0
5.799999999999998 0.0 0.0
5.699999999999998 0.0 0.0
5.599999999999998 0.0 0.0
5.499999999999998 0.0 0.0
5.399999999999999 0.0 0.0
5.299999999999999 0.0 0.0
5.199999999999998 0.0 0.0
5.099999999999999 0.0 0.0
4.999999999999999 0.0 0.0
4.899999999999998 0.0 0.0
4.799999999999999 0.0 0.0
4.699999999999998 0.0 0.0
4.599999999999999 0.0 0.0
4.499999999999998 0.0 0.0
4.399999999999999 0.0 0.0
4.299999999999998 0.0 0.0
4.199999999999999 0.0 0.0
4.099999999999998 0.0 0.0
3.999999999999999 0.0 0.0
3.899999999999999 0.0 0.0
3.799999999999999 0.0 0.0
3.699999999999999 0.0 0.0
3.599999999999999 0.0 0.0
3.499999999999997 0.0 0.0
3.399999999999998 0.0 0.0
3.299999999999999 0.0 0.0
3.199999999999998 0.0 0.0
3.099999999999998 0.0 0.0
2.999999999999999 0.0 0.0
2.899999999999999 0.0 0.0
2.799999999999998 0.0 0.0
2.699999999999998 0.0 0.0
2.599999999999998 0.0 0.0
2.499999999999999 0.0 0.0
2.399999999999999 0.0 0.0
2.299999999999999 0.0 0.0
2.199999999999999 0.0 0.0
2.1 0.0 0.0
1.999999999999998 0.0 0.0
1.899999999999999 0.0 0.0
1.799999999999999 0.0 0.0
1.699999999999999 0.0 0.0
1.6 0.0 0.0
1.5 0.0 0.0
1.4 0.0 0.0
1.299999999999999 0.0 0.0
1.199999999999999 0.0 0.0
1.099999999999998 0.0 0.0
0.9999999999999982 0.0 0.0
0.9000000000000004 0.0 0.0
0.7999999999999989 0.0 0.0
0.6999999999999993 0.0 0.0
0.6000000000000014 0.0 0.0
0.5 0.0 0.0
0.3999999999999986 0.0 0.0
0.2999999999999989 0.0 0.0
0.1999999999999993 0.0 0.0
0.09999999999999964 0.0 0.0
0.0 0.09999999999981467 0.0
0.0 0.1999999999995579 0.0
0.0 0.2999999999992664 0.0
0.0 0.3999999999989749 0.0
0.0 0.4999999999986943 0.0
0.0 0.5999999999989468 0.0
0.0 0.69999999999921 0.0
0.0 0.7999999999994734 0.0
0.0 0.8999999999997368 0.0
0.5476528130348963 0.5121098161443585 0.0
9.46434718695938 0.51210981614437 0.0
8.32730468532613 0.5030894452698418 0.0
1.684695314672824 0.5030894452697886 0.0
8.902805651027089 0.519342927017433 0.0
1.109194348967266 0.5193429270162631 0.0
7.817830203679193 0.5251426120868421 0.0
2.1792174856472237 0.4982267349508818 0.0
4.961041460293186 0.5191553171990838 0.0
5.548009165428291 0.5197102071032211 0.0
4.364745096430759 0.5197795348992172 0.0
6.143615039826717 0.5201124115496591 0.0
3.769145809266072 0.5201389538133331 0.0
6.74518662607509 0.51456153994595 0.0
3.174225596596224 0.5022463564603545 0.0
7.244452182243487 0.5002341597903474 0.0
2.6771296319354176 0.509217474941245 0.0
8.616416666663042 0.670028091721131 0.0
0.8282639344665514 0.6699373087180307 0.0
9.183736065526313 0.6699373087185484 0.0
1.395583333332481 0.6700280917201338 0.0
5.254106060599075 0.6638799571999888 0.0
4.663863919048468 0.6612983302018929 0.0
5.844319865837295 0.6613443837830576 0.0
4.068439925974143 0.6613543803346219 0.0
6.439762851419118 0.6614016840705856 0.0
3.4729943154471337 0.6614107849566089 0.0
7.545664883754709 0.6678597507659036 0.0
9.191335985068319 0.3267158360904801 0.0
0.820664014925943 0.3267158360907301 0.0
1.402276979439103 0.3312822840182138 0.0
8.60972302055944 0.3312822840179193 0.0
7.550461689922496 0.3380084607090091 0.0
6.4403278053984625 0.3283729630340579 0.0
3.472432241628079 0.3284163134520157 0.0
4.070649727270247 0.3301764249354346 0.0
5.842125085723671 0.3301913311049597 0.0
4.659066719603841 0.316260416465652 0.0
5.257142710365074 0.3296582412785777 0.0
8.0784119738553 0.3123246277014143 0.0
1.924075117768747 0.3093225691798147 0.0
8.08501881591813 0.6941484337616962 0.0
1.933216065232658 0.6840220048840039 0.0
6.991580314144121 0.6913351094097454 0.0
2.4360249389903976 0.3147236112893247 0.0
7.003410713123902 0.3105567415214273 0.0
2.9245177622305527 0.317978123834895 0.0
2.4291132336057277 0.6959376577174915 0.0
2.9263774836782117 0.6942313772217483 0.0
9.705053824559279 0.699353665202525 0.0
0.3069461754389854 0.6993536652043335 0.0
9.702309470559369 0.3021835309947525 0.0
0.3096905294390627 0.3021835309947086 0.0
8.32022860662159 0.7459697753958776 0.0
1.691771393377538 0.745969775396306 0.0
8.887277521719191 0.7540196982946266 0.0
1.09293277605474 0.7540219301832366 0.0
0.5880482539954717 0.7517201200836876 0.0
9.423951745998092 0.7517201200837733 0.0
8.867323436265435 0.2582645350214838 0.0
1.144676563731155 0.2582645350218298 0.0
8.37315299313169 0.24978781972198238 0.0
1.6388470068645231 0.24978781972237807 0.0
0.5652119546333989 0.23748131261199618 0.0
9.446788045361822 0.23748131261240468 0.0
5.604904149172106 0.2642993969043575 0.0
3.7300842048819227 0.2528012103450543 0.0
4.307826964989718 0.264294863692169 0.0
6.182633311559795 0.2527971321192558 0.0
5.022878992323143 0.7462340615590987 0.0
5.4937160340930635 0.7423313082794567 0.0
4.4250203760399085 0.7463845343074343 0.0
6.083172299642579 0.7467098059681705 0.0
3.829597865105137 0.7467159061989325 0.0
6.701095279153011 0.7633216484293641 0.0
3.21288864776639 0.7636244348021719 0.0
7.78471837091808 0.2528044004433667 0.0
7.280903151807777 0.7635287984690629 0.0
2.1862388098179717 0.7440322741697185 0.0
7.811688072883944 0.755932257301788 0.0
4.907803154414495 0.2617248279833361 0.0
7.2937946400696045 0.24878109992923736 0.0
3.2169206846187977 0.2523702802466789 0.0
6.695794150143623 0.2523757126799706 0.0
2.1620369076455956 0.2173336235068867 0.0
2.674105254439311 0.2517783467404228 0.0
2.67322354693487 0.7683758687944074 0.0
0.2202980634894686 0.5059191888378421 0.0
9.791701936510634 0.5059191888380712 0.0
3.624884972738575 0.7953599319866957 0.0
6.287882814068963 0.7953609316951303 0.0
4.2202753122171845 0.795366122918775 0.0
5.692493650616456 0.7953671995498026 0.0
4.815647469550774 0.7953777000803819 0.0
5.418319816341697 0.2047135381106249 0.0
4.494164025767657 0.20449679375879656 0.0
5.095626984106869 0.20382878916886807 0.0
6.018137641186841 0.2054290356479789 0.0
3.8945845110705606 0.20546235588773 0.0
0.956177985214236 0.1955608159479155 0.0
9.055822014781324 0.1955608159478295 0.0
6.346835285871445 0.49412050050475653 0.0
3.565928345216078 0.4941414737616119 0.0
[...]
POINT_DATA 1422
VECTORS vector double
1.0 0.0 0.0
0.0 0.0 0.0
0.0 0.0 0.0
0.0 0.0 0.0
1.1159164071 0.0 0.0
1.0 0.0 0.0
0.0 0.0 0.0
0.0 0.0 0.0
0.0 0.0 0.0
0.0 0.0 0.0
0.0 0.0 0.0
0.0 0.0 0.0
0.0 0.0 0.0
0.0 0.0 0.0
0.0 0.0 0.0
0.0 0.0 0.0
0.0 0.0 0.0
0.0 0.0 0.0
0.0 0.0 0.0
0.0 0.0 0.0
0.0 0.0 0.0
0.0 0.0 0.0
0.0 0.0 0.0
0.0 0.0 0.0
0.0 0.0 0.0
0.0 0.0 0.0
0.0 0.0 0.0
0.0 0.0 0.0
0.0 0.0 0.0
0.0 0.0 0.0
0.0 0.0 0.0
0.0 0.0 0.0
0.0 0.0 0.0
0.0 0.0 0.0
0.0 0.0 0.0
0.0 0.0 0.0
0.0 0.0 0.0
0.0 0.0 0.0
0.0 0.0 0.0
0.0 0.0 0.0
0.0 0.0 0.0
0.0 0.0 0.0
0.0 0.0 0.0
0.0 0.0 0.0
0.0 0.0 0.0
0.0 0.0 0.0
0.0 0.0 0.0
0.0 0.0 0.0
0.0 0.0 0.0
0.0 0.0 0.0
0.0 0.0 0.0
0.0 0.0 0.0
0.0 0.0 0.0
0.0 0.0 0.0
0.0 0.0 0.0
0.0 0.0 0.0
0.0 0.0 0.0
0.0 0.0 0.0
0.0 0.0 0.0
0.0 0.0 0.0
0.0 0.0 0.0
0.0 0.0 0.0
0.0 0.0 0.0
0.0 0.0 0.0
0.0 0.0 0.0
0.0 0.0 0.0
0.0 0.0 0.0
0.0 0.0 0.0
0.0 0.0 0.0
0.0 0.0 0.0
0.0 0.0 0.0
0.0 0.0 0.0
0.0 0.0 0.0
0.0 0.0 0.0
0.0 0.0 0.0
0.0 0.0 0.0
0.0 0.0 0.0
0.0 0.0 0.0
0.0 0.0 0.0
0.0 0.0 0.0
0.0 0.0 0.0
0.0 0.0 0.0
0.0 0.0 0.0
0.0 0.0 0.0
0.0 0.0 0.0
0.0 0.0 0.0
0.0 0.0 0.0
0.0 0.0 0.0
0.0 0.0 0.0
0.0 0.0 0.0
0.0 0.0 0.0
0.0 0.0 0.0
0.0 0.0 0.0
0.0 0.0 0.0
0.0 0.0 0.0
0.0 0.0 0.0
0.0 0.0 0.0
0.0 0.0 0.0
0.0 0.0 0.0
0.0 0.0 0.0
0.0 0.0 0.0
0.0 0.0 0.0
0.0 0.0 0.0
0.0 0.0 0.0
0.0 0.0 0.0
0.633269728899 0.0630587040954 0.0
0.969611664985 0.0111423851472 0.0
1.09407525802 0.00921512846682 0.0
1.11326387901 0.00119972519886 0.0
1.11602404953 0.00042620167381 0.0
1.11664115971 0.000288745759483 0.0
1.11741080875 7.90250470727e-05 0.0
1.11777834859 0.000110529614825 0.0
1.11836071761 0.000100369252896 0.0
1.11786503936 0.0 0.0
1.11793415025 0.0 0.0
1.11884982964 0.0 0.0
1.11910447454 0.0 0.0
1.11941226205 0.0 0.0
1.12008183123 0.0 0.0
1.12062398505 0.0 0.0
1.1210897553 0.0 0.0
1.12142304855 0.0 0.0
1.12154467552 0.0 0.0
1.12161028053 0.0 0.0
1.1224301364 0.0 0.0
1.12252236826 0.0 0.0
1.1227499589 0.0 0.0
1.12280549571 0.0 0.0
1.1227209691 0.0 0.0
1.1227823548 0.0 0.0
1.12300802549 0.0 0.0
1.12290432831 0.0 0.0
1.12278333188 0.0 0.0
1.12301160861 0.0 0.0
1.12268535269 0.0 0.0
1.12233769381 0.0 0.0
1.12223961459 0.0 0.0
1.12185426138 0.0 0.0
1.12125310108 0.0 0.0
1.12089740607 0.0 0.0
1.12054183597 0.0 0.0
1.12067545546 0.0 0.0
1.12071227472 0.0 0.0
1.1206545185 0.0 0.0
1.1204986586 0.0 0.0
1.12045282064 0.0 0.0
1.12021413513 0.0 0.0
1.11977931583 0.0 0.0
1.11936780909 0.0 0.0
1.11920218131 0.0 0.0
1.11764250849 0.0 0.0
1.11860823634 0.0 0.0
1.11862184643 0.0 0.0
1.11826706044 0.0 0.0
1.11806409587 0.0 0.0
1.11837708255 0.0 0.0
1.11663214434 0.0 0.0
1.11786467323 0.0 0.0
1.11734158049 0.0 0.0
1.1172979772 0.0 0.0
1.11731687088 0.0 0.0
1.11739090374 0.0 0.0
1.11809682565 0.0 0.0
1.11682280537 0.0 0.0
1.11866218211 0.0 0.0
1.11843752587 0.0 0.0
1.11864684046 0.0 0.0
1.11909791786 0.0 0.0
1.1180171085 0.0 0.0
1.11919710194 0.0 0.0
1.1196235209 0.0 0.0
1.11923819399 0.0 0.0
1.11935003317 0.0 0.0
1.11976217486 0.0 0.0
1.11981471329 0.0 0.0
1.11888897408 0.0 0.0
1.1202010278 0.0 0.0
1.11983089812 0.0 0.0
1.11973737331 0.0 0.0
1.11929038807 0.0 0.0
1.11884855453 0.0 0.0
1.11805800594 0.0 0.0
1.11772253403 0.0 0.0
1.11722778877 0.0 0.0
1.11663960891 0.0 0.0
1.11658498466 0.0 0.0
1.11656027346 0.0 0.0
1.11633232912 0.0 0.0
1.11703465963 0.0 0.0
1.11712138223 0.0 0.0
1.11746040095 0.0 0.0
1.11791620656 0.0 0.0
1.118297413 0.0 0.0
1.11921228598 0.0 0.0
1.11921795809 0.0 0.0
1.11953640509 0.0 0.0
1.11977878003 0.0 0.0
1.11984814593 0.0 0.0
1.11939653802 0.0 0.0
1.11861346756 0.0 0.0
1.11706683311 0.0 0.0
1.11436266194 0.0 0.0
1.11212424289 0.0 0.0
1.10766387657 0.0 0.0
1.10331844447 0.0 0.0
1.09423239948 0.0 0.0
1.0826709383 0.0 0.0
1.05930913634 0.0 0.0
1.04338948498 0.0 0.0
1.01878070714 0.0 0.0
1.00717244384 0.0 0.0
1.00292578667 0.0 0.0
1.0 0.0 0.0
1.0 0.0 0.0
1.0 0.0 0.0
1.0 0.0 0.0
1.0 0.0 0.0
1.0 0.0 0.0
1.0 0.0 0.0
1.0 0.0 0.0
1.0 0.0 0.0
1.09777360761 -0.091925146348 0.0
1.11920665393 0.00470215719402 0.0
1.12182225621 0.00104601705554 0.0
1.12006538737 0.00359854337835 0.0
1.12143441743 0.00312917408144 0.0
1.12927023204 -0.0111885380802 0.0
1.12408209916 -0.000152315079782 0.0
1.11932858283 0.00271805301989 0.0
1.1177033663 0.00344559325213 0.0
1.11656043625 -0.00351752906052 0.0
1.1191332253 0.00092731531913 0.0
1.11574246612 0.00222378084094 0.0
1.11869159902 0.00286897324028 0.0
1.12387845231 -0.000885897370472 0.0
1.11952285998 -0.0037699573769 0.0
1.11649447683 -0.00121577466525 0.0
1.1131344507 -0.00106242401068 0.0
1.11554497283 -0.00588117806628 0.0
1.14008013091 -0.0404009198612 0.0
1.10886639089 -0.00577582316289 0.0
1.11571275843 -0.00284103333408 0.0
1.10312933453 -0.00201591578742 0.0
1.11021926092 -0.00324171040354 0.0
1.11530512348 -0.00190046430923 0.0
1.10945457668 -0.00546835109711 0.0
1.10827728723 -0.0123348535113 0.0
1.11366401627 -0.0025961296105 0.0
1.10899773881 -0.00852529721981 0.0
1.1211423399 0.0011612968245 0.0
1.10221341646 -0.0335394364365 0.0
1.12217188508 -0.00133602070468 0.0
1.12308038204 0.000128470560748 0.0
1.12231529138 -0.002129495137 0.0
1.11895926505 -0.00194492721306 0.0
1.12060848131 -0.000731527139486 0.0
1.11934946243 0.000141627882064 0.0
1.11905883104 -0.00054879708754 0.0
1.1189591956 0.000684355694883 0.0
1.1162185383 0.000175936776784 0.0
1.12355006084 0.00019539865548 0.0
1.11890331742 0.00118810820809 0.0
1.10284034179 -0.00154509748509 0.0
1.09995008833 -0.00828756949842 0.0
1.10268286181 0.0129306735209 0.0
1.11617953178 0.00138330797007 0.0
1.12067580499 0.000663314513888 0.0
1.11680180685 -0.00186728468131 0.0
1.09284995678 0.0064041314947 0.0
1.09248458311 -0.00763010757005 0.0
1.09690920988 0.000252554751829 0.0
1.08839136946 -0.152220664303 0.0
1.11827088487 0.00127759985765 0.0
1.02115654281 -0.0378534925311 0.0
1.04144984154 0.0105344361359 0.0
1.04570095469 0.0110596731917 0.0
1.05312995538 0.0118713770759 0.0
1.0553335503 0.00406661698313 0.0
1.13364417774 -0.106392525018 0.0
1.06128903352 0.0170052148252 0.0
1.1222966078 0.000820092986889 0.0
1.11786277932 -0.00736652940531 0.0
1.12305387937 0.000239304880978 0.0
1.12051991104 0.00064980064871 0.0
1.05738732255 -0.043533421185 0.0
1.11997659284 0.00134081325245 0.0
1.11771366535 -0.000912675586092 0.0
1.12007424008 0.00037346205387 0.0
1.11939236778 0.000236714423325 0.0
1.11834149982 -0.000310517732854 0.0
1.06015849641 0.00581513136472 0.0
1.06388063145 -0.00221267702303 0.0
1.05948389662 0.000443540851551 0.0
1.06428664073 0.0177346911177 0.0
1.05758010988 0.00175017378056 0.0
1.02827816846 -0.0064839717806 0.0
1.02202649522 0.000210542696572 0.0
1.12316168561 -0.000577919319677 0.0
1.01974019536 -0.00881464529344 0.0
1.07293608251 0.0105182526194 0.0
1.04317399726 0.00370029049464 0.0
1.11803456168 0.000891964585259 0.0
1.1204500557 -0.000641751350105 0.0
1.11908556987 -0.00142932644526 0.0
1.12097282494 -0.000666810278268 0.0
1.11808578025 0.000993167529522 0.0
1.11596851136 -0.000256272309995 0.0
1.03031022461 -0.00389136600273 0.0
1.02016120399 -0.05254719363 0.0
1.11689375475 0.00187113097562 0.0
0.975687727363 0.000692068242672 0.0
0.987263814287 0.00231146461276 0.0
0.988235687918 7.28290692321e-05 0.0
0.984904533111 -0.0123671860698 0.0
0.989712575956 0.00244847915553 0.0
1.11716625759 -0.00043334618614 0.0
1.11932191182 0.000365116344226 0.0
1.11727997839 0.000646204240456 0.0
1.11884723103 -2.91660550255e-05 0.0
1.11987736431 0.000399370909721 0.0
1.10605601036 -0.0108695257835 0.0
1.12146902329 0.000684946324613 0.0
1.11566379193 -0.00313228304745 0.0
1.12254385354 0.000542593967885 0.0
1.11970139869 -0.000677704373581 0.0
1.11981354277 -0.00210114690256 0.0
1.12405674225 0.000782107880578 0.0
1.11779342105 0.00115421369882 0.0
1.12208598696 0.0020104918442 0.0
1.11810197468 -0.0633779185394 0.0
1.12277110037 -0.000635288239058 0.0
1.12455638156 0.000916688380264 0.0
1.11582192743 0.00379028112855 0.0
1.11965935315 0.00100849521094 0.0
1.1149646847 -0.00365921912689 0.0
1.11491257418 0.00218784718524 0.0
1.11463195733 -0.0014136315602 0.0
1.12226547366 0.00260294776253 0.0
1.11897988917 0.000595231566538 0.0
1.12660362079 -0.00316333508578 0.0
1.1248229119 0.000517292075164 0.0
1.12072291891 0.000435963881257 0.0
1.12990438633 -0.0316906414547 0.0
1.12024810757 -0.00518716615478 0.0
1.12106002401 -0.00462339007239 0.0
1.12189487269 -0.002976715129 0.0
1.1182525179 0.000254147473333 0.0
1.12085434059 0.000979176347685 0.0
1.12414777594 -0.0034538003158 0.0
0.897534949083 -0.00290285520632 0.0
0.900054239961 -0.0049236392234 0.0
0.926647393693 -8.82928006944e-05 0.0
0.960312343518 0.00229539400109 0.0
0.946192775732 -0.0142085311228 0.0
0.906535599069 -0.00816038950457 0.0
0.94192789906 0.00647817462887 0.0
0.939145217225 0.00621868417734 0.0
0.95365406441 0.0245790197584 0.0
1.12307711034 -0.000134460966914 0.0
0.897442446623 0.00460926880158 0.0
1.12044864222 -5.44883807941e-05 0.0
1.1208115382 1.39806725972e-05 0.0
1.11817232125 -0.00117952875865 0.0
1.11939758031 0.000649553738821 0.0
1.12302699918 0.000138892483321 0.0
0.927119493915 -0.0389161210213 0.0
0.890505318652 0.00251213179206 0.0
0.880154232388 0.00583847005615 0.0
1.03183147615 -0.136642933847 0.0
0.953358193306 -0.00699401785794 0.0
1.05131731526 -0.127560664992 0.0
0.923234910631 -0.00235407694032 0.0
1.12133632183 -0.000853485330297 0.0
0.918749610025 -0.00413404878924 0.0
0.916168496873 0.00369973265467 0.0
0.917404231487 -0.00544710413292 0.0
0.888502773284 -0.00972524586922 0.0
0.884732910967 -0.00787011798302 0.0
1.12074336004 0.000769536598239 0.0
1.0808666897 -0.0217668920822 0.0
1.12023836082 -0.000505114918158 0.0
1.12272113345 0.000135620774154 0.0
0.921432603813 -0.015037857705 0.0
1.11795978641 0.000424557364509 0.0
1.00505456722 -0.011365578562 0.0
1.12009008625 -0.000188005964181 0.0
1.1190811571 -0.000640584625499 0.0
1.11937048071 0.00010180407398 0.0
1.11829211748 -0.000335830585755 0.0
1.11855178707 0.00039883465809 0.0
1.11894956495 0.000814799856536 0.0
1.03188036598 -0.0296233700375 0.0
1.121763941 0.00126146265563 0.0
1.1186742446 -0.0158351651132 0.0
0.906548743398 0.00301779902448 0.0
0.917363758833 0.00704936635472 0.0
1.11707352785 0.000649200263333 0.0
1.1198627243 -0.000735609040476 0.0
1.11960376146 -0.000608846765527 0.0
0.877808199063 -0.012460955623 0.0
1.1226497859 0.000279912051127 0.0
1.11935033109 -0.00208248222765 0.0
1.12309839583 0.00048719893911 0.0
1.11958668144 0.00168073962154 0.0
0.891769035455 -0.0223613707142 0.0
1.11607346323 0.000828616953079 0.0
0.871842732512 -0.00936814703477 0.0
0.838655521205 0.00200806799294 0.0
0.902751302924 0.00592616420548 0.0
1.11836067693 0.000628868660117 0.0
1.11941664034 0.000202782055464 0.0
1.10100691138 0.00595623416497 0.0
1.12226534969 -0.000816551253391 0.0
1.11666080446 -0.000621859810402 0.0
1.12368662028 -0.000322698699499 0.0
1.11622627509 0.00035188833047 0.0
0.883419674967 0.0106226902743 0.0
1.10825508955 -0.00606880258409 0.0
1.12179439375 1.65831510047e-05 0.0
1.1181591589 -0.00234705606447 0.0
1.1137403146 -0.00633007418221 0.0
1.11477042862 0.00130143986819 0.0
1.10555361115 0.00206966666093 0.0
1.11402482416 0.00594457951433 0.0
1.11470125097 0.00460798956172 0.0
1.11711913672 7.4114039321e-05 0.0
1.11155537089 -0.00222776848229 0.0
1.11836781957 0.00771696962453 0.0
1.11563304676 0.000669524356308 0.0
1.11876787498 0.000501750335953 0.0
1.11960281453 0.000844753258332 0.0
1.11728377783 0.00146703345698 0.0
1.11658446034 0.00304114401433 0.0
1.06682863016 -0.107267419281 0.0
1.11941823026 0.000549506611802 0.0
1.11514334741 -0.00188829725022 0.0
1.11788902102 0.00454172422049 0.0
1.13012373697 -0.0126414100998 0.0
1.10632646664 0.00041801991941 0.0
1.11677133671 -0.00120933703438 0.0
1.11906432373 0.00101599484233 0.0
1.12452901942 -0.000264440765593 0.0
1.11904758206 0.00221416312141 0.0
1.0475998967 -0.0627216352781 0.0
1.11901567562 0.00385021934964 0.0
1.11086106592 0.00490557243949 0.0
1.1174515211 0.00219892210329 0.0
1.11504144299 0.000509793264347 0.0
1.12013122373 -0.00122747974678 0.0
1.11583285872 0.00788591432779 0.0
1.11162155944 0.0024667616358 0.0
1.10797883471 -0.00417189691345 0.0
1.1154413603 -0.00143811379974 0.0
1.11079638752 0.00400385213926 0.0
1.01371967326 -0.0620517130422 0.0
1.11736995063 0.000860424806373 0.0
1.00711721877 -0.022107434977 0.0
1.1176379585 0.00352988554569 0.0
1.12301519581 0.000789457661581 0.0
1.12268187105 -0.00454785209369 0.0
1.10104617651 0.00352269395789 0.0
1.13975430922 -0.14947552837 0.0
1.11678895208 -0.00442520722185 0.0
1.14874429583 -0.0787666791707 0.0
1.11783755174 0.00638486779278 0.0
1.12267341444 0.000322188040004 0.0
1.12142280358 0.00148243174967 0.0
1.08419970066 -0.0627846291685 0.0
1.12064405696 0.00230515957382 0.0
1.11989284216 -0.0023085081453 0.0
1.12181813335 -0.00173560099374 0.0
1.12384176073 -0.00134218229171 0.0
1.10565489321 0.00469469456162 0.0
1.1083166967 -0.0124852028849 0.0
1.11032817687 -0.00536547107915 0.0
1.10934307035 -0.000565539694941 0.0
1.11954449046 -0.00186381498762 0.0
1.11703961135 -0.0067136698517 0.0
1.1130125953 -0.00602093437265 0.0
1.10750596415 -0.000437108085621 0.0
1.11542003416 0.0060230039128 0.0
1.11866545141 0.0015129840544 0.0
1.11821022708 -0.0017650836191 0.0
1.11965198725 0.000205971358759 0.0
1.11722827945 -0.000616655753614 0.0
1.12074429817 0.000931630132295 0.0
0.824764431159 0.0128112492494 0.0
0.759385583444 0.018907551548 0.0
0.77270269157 0.00303716628309 0.0
0.755930792743 0.0157355690781 0.0
0.771877510755 -0.00294280765053 0.0
1.11751876211 -0.000354754200023 0.0
0.756558435949 0.0145994586993 0.0
1.11904333626 0.000159795957841 0.0
1.11775230134 0.000428645625045 0.0
1.11838815309 -0.000134604294225 0.0
1.11967474102 0.000201465504396 0.0
1.12078377551 0.000152857499578 0.0
1.12315360549 6.17846025619e-05 0.0
1.11260587704 -0.00408091114629 0.0
1.12128469769 0.000411046314897 0.0
0.810473903087 -0.0234178299774 0.0
0.741357478434 -0.00277655670099 0.0
0.78827066182 0.0035404844723 0.0
1.11885665948 0.00030371880483 0.0
0.800928967641 0.00603351415055 0.0
0.722747748708 -0.0142610916235 0.0
0.724300075731 0.00561939567649 0.0
0.714392013958 0.0215379245409 0.0
0.721340057761 -0.00641207250527 0.0
1.12054717224 -0.000210377362816 0.0
0.749673793979 0.0263214305898 0.0
0.695040593054 0.0269530741278 0.0
0.805818060492 -0.0108238083638 0.0
0.773133508334 0.00462640341986 0.0
1.02516891337 -0.148916392108 0.0
1.11953579049 0.000127213472693 0.0
1.11852393654 -0.000171220197275 0.0
1.12052898504 -0.000222214445169 0.0
0.80519990699 -0.00898914573777 0.0
0.804731395605 0.00145759232949 0.0
0.698298199159 -0.0303185526875 0.0
0.684137602286 0.0210121467526 0.0
0.805015310448 0.00253284905839 0.0
1.11858754409 -0.000709080246239 0.0
1.12378251199 4.75627206352e-05 0.0
1.10532133545 -0.0015077145347 0.0
1.11980577165 0.000652126976384 0.0
1.05754923632 -0.0236400805068 0.0
1.0938985196 0.00573071759505 0.0
1.11980074218 0.000349823848969 0.0
1.122928708 0.000123040650839 0.0
1.03030314855 -0.0592349591828 0.0
1.11800576035 0.0020873434574 0.0
1.1227210824 -0.000287605712419 0.0
0.697160473805 0.0270521863937 0.0
1.11848054439 0.00122838367314 0.0
1.11778667694 0.000538297130821 0.0
1.11630912123 -5.78903195233e-05 0.0
1.11861188425 0.000563964883743 0.0
1.01839860227 -0.0198289452628 0.0
1.10147982458 -0.00715803835527 0.0
1.12123241008 0.000410834907683 0.0
0.572879682151 -0.0071974861337 0.0
1.11594620945 0.00507493022836 0.0
1.128900651 -0.00867284847506 0.0
0.573140856709 -0.0172849540218 0.0
0.692619991732 -0.019043727421 0.0
1.12069158605 -0.000156813078947 0.0
1.11834489764 -0.00124360003966 0.0
1.11859620628 -0.00082024202068 0.0
1.11955766312 9.27202772099e-05 0.0
1.11289268287 -0.00516248424131 0.0
1.1146043241 0.00248876707508 0.0
0.67055189007 -0.000298847626375 0.0
1.11193252739 0.00615435172027 0.0
1.11316845658 0.00528615843757 0.0
1.11306950825 0.00662366828975 0.0
0.676373963718 -0.0106349161819 0.0
1.11878109851 0.00078211941289 0.0
0.597639734036 0.017418276272 0.0
0.590206147771 -0.00995820604216 0.0
0.5975176939 0.0182313084986 0.0
0.609664904947 0.0298902411919 0.0
1.12054242837 0.000697476110932 0.0
1.12112059783 -0.00133398726212 0.0
1.12264517639 -0.00130968012409 0.0
1.11796918388 -0.000345149581492 0.0
1.1193156172 0.00010562841921 0.0
1.11821014911 0.000400879449112 0.0
1.12086524634 0.00125176290627 0.0
1.08441101938 -0.0373801933596 0.0
1.12015286876 -0.00139823172144 0.0
1.12128033996 -0.000567020347595 0.0
1.12292964217 0.000162833522472 0.0
1.11998547084 -0.00101355592559 0.0
1.11867902272 0.00723606645134 0.0
1.13309613539 -0.112768804524 0.0
1.11987929893 1.88729972478e-05 0.0
1.11869228526 -0.000336985834884 0.0
1.12179513973 -0.0111182359485 0.0
1.1224373849 0.00155375991383 0.0
1.11729005859 -0.000538825816871 0.0
1.11894533243 0.000586692450836 0.0
1.12283753074 -0.00325795789563 0.0
0.655845197671 -0.00677708187271 0.0
0.656078677255 -0.0093025556972 0.0
1.11701734272 -0.00464287565048 0.0
0.60614930507 -0.00488660479578 0.0
1.1100567979 -0.00254566601668 0.0
1.1170291099 -0.00150046888945 0.0
0.768821424403 -0.0130675607225 0.0
1.1184217824 0.00199168354088 0.0
1.10688825674 -0.00112226297925 0.0
1.11521793718 0.00210899424445 0.0
1.11634775101 0.00797997682571 0.0
1.11690289975 0.00242294223174 0.0
1.12219428043 0.000315583761925 0.0
1.11686793851 -0.00230839289596 0.0
0.61407559543 0.00461438505301 0.0
0.627957973229 0.0122957423456 0.0
0.580029075526 -0.0275527468689 0.0
1.12098255881 -0.000364603175644 0.0
1.1173119494 0.000202119228061 0.0
1.11694049555 -0.0032678572718 0.0
1.00589816964 -0.0297254493423 0.0
1.116231277 0.00148025899257 0.0
1.11989780036 -1.98283669548e-05 0.0
1.12279068642 9.55051812944e-05 0.0
1.11724219117 -0.000103105955558 0.0
1.1208317181 -0.00132515965261 0.0
1.11743423382 -0.00117998931114 0.0
1.12277676709 -0.0013634450606 0.0
1.11702318845 -0.00665322935338 0.0
1.11806371786 6.43369994853e-05 0.0
1.11095442146 -8.8468770019e-05 0.0
0.559605286397 -0.0029768520601 0.0
0.587926459014 0.0167310595297 0.0
0.636289843637 -0.012516635633 0.0
1.12180183734 0.00114254603662 0.0
1.11857310558 -0.0424923106216 0.0
1.1233219911 1.16264606929e-05 0.0
1.1244070163 -0.00145358028402 0.0
1.11681275045 0.000369449986399 0.0
1.12178236973 0.000360753490335 0.0
1.13722660118 -0.0496680605314 0.0
1.12597042356 0.000465196827376 0.0
1.12358139421 -0.00239075895036 0.0
1.12088197294 0.0017789440563 0.0
0.640833954354 0.00624572703544 0.0
1.12347557658 -0.00627399964547 0.0
0.742166798805 -0.00160617680839 0.0
0.708448752838 -0.0050054107835 0.0
1.11691884189 0.000778100610949 0.0
0.514144998074 0.00895231587614 0.0
0.622040505919 -0.0523799971436 0.0
1.11955197648 -0.000432078521915 0.0
1.11986565 -0.000239099206877 0.0
1.12298813332 -0.000145645452622 0.0
1.11680213311 -0.000458201939284 0.0
0.577402865792 0.00107096245271 0.0
1.12251103409 -0.00348409034969 0.0
1.11922752229 0.000532822683139 0.0
1.08979204177 -0.000795931592578 0.0
1.06229299926 0.00774482106043 0.0
1.06546476621 0.00883124640054 0.0
1.06556080346 0.00514568900058 0.0
1.06826120509 -0.00639019799986 0.0
1.09681815588 -0.00373944682989 0.0
1.08900813337 -0.00323694785498 0.0
1.07999335101 -0.0117689337879 0.0
1.08572493249 0.00626385675501 0.0
1.05679365041 -0.023163902149 0.0
1.02989421785 -0.01079138818 0.0
1.07585120431 0.00251472246437 0.0
1.00935916568 -0.0507715747705 0.0
1.09853591388 -0.0182478817545 0.0
1.12140968287 0.000809105709765 0.0
1.04295976143 -0.0914519101537 0.0
1.11718870155 0.00287302528489 0.0
1.06618634669 0.0097564195903 0.0
1.00284263839 -0.0100423040853 0.0
1.1177782224 0.000300289705642 0.0
1.1187041437 -0.00357849433633 0.0
1.12192842602 -0.00112844566361 0.0
1.11623377519 -0.00120163307161 0.0
1.11746019133 -0.000882911512589 0.0
1.11923714415 -0.000270909048472 0.0
1.12006946392 -0.000722963052121 0.0
1.11939954104 0.000352532799052 0.0
1.1203712204 -0.000342791023925 0.0
1.11936030053 0.000640017512937 0.0
1.11545358006 0.000529917842763 0.0