# vtk DataFile Version 2.0
2D Simulation Python
ASCII
DATASET UNSTRUCTURED_GRID
FIELD FieldData 1
NODES 1 2 int
2790 1289

POINTS 2790 double
0.0 1.0 0.0
1.725 1.0 0.0
8.275 1.0 0.0
20.0 1.0 0.0
20.0 0.0 0.0
0.0 0.0 0.0
0.1916666666663293 1.0 0.0
0.3833333333324708 1.0 0.0
0.574999999998553 1.0 0.0
0.7666666666645966 1.0 0.0
0.9583333333312576 1.0 0.0
1.149999999998384 1.0 0.0
1.341666666665662 1.0 0.0
1.533333333332819 1.0 0.0
0.0958333333331406 1.0 0.0
0.2874999999994247 1.0 0.0
0.4791666666655395 1.0 0.0
0.6708333333315728 1.0 0.0
0.8624999999976626 1.0 0.0
1.054166666664886 1.0 0.0
1.245833333332057 1.0 0.0
1.437499999999343 1.0 0.0
1.629166666666455 1.0 0.0
1.92348484848444 1.0 0.0
2.121969696968978 1.0 0.0
2.320454545453434 1.0 0.0
2.518939393937826 1.0 0.0
2.717424242422235 1.0 0.0
2.915909090906411 1.0 0.0
3.1143939393908 1.0 0.0
3.312878787875129 1.0 0.0
3.511363636359531 1.0 0.0
3.709848484843827 1.0 0.0
3.90833333332816 1.0 0.0
4.106818181812215 1.0 0.0
4.305303030296804 1.0 0.0
4.503787878781365 1.0 0.0
4.702272727265711 1.0 0.0
4.900757575750005 1.0 0.0
5.099242424235156 1.0 0.0
5.297727272720327 1.0 0.0
5.496212121205663 1.0 0.0
5.694696969690998 1.0 0.0
5.89318181817668 1.0 0.0
6.09166666666213 1.0 0.0
6.290151515147423 1.0 0.0
6.488636363633031 1.0 0.0
6.687121212118713 1.0 0.0
6.885606060604342 1.0 0.0
7.084090909089381 1.0 0.0
7.282575757574369 1.0 0.0
7.481060606059355 1.0 0.0
7.679545454544343 1.0 0.0
7.878030303029329 1.0 0.0
8.076515151514705 1.0 0.0
1.824242424242199 1.0 0.0
2.022727272726695 1.0 0.0
2.221212121211181 1.0 0.0
2.41969696969563 1.0 0.0
2.618181818180092 1.0 0.0
2.816666666664316 1.0 0.0
3.015151515148624 1.0 0.0
3.213636363633039 1.0 0.0
3.412121212117267 1.0 0.0
3.610606060601583 1.0 0.0
3.809090909085975 1.0 0.0
4.007575757570153 1.0 0.0
4.206060606054539 1.0 0.0
4.404545454539001 1.0 0.0
4.603030303023853 1.0 0.0
4.801515151507715 1.0 0.0
4.999999999992074 1.0 0.0
5.198484848477777 1.0 0.0
5.396969696963081 1.0 0.0
5.595454545448261 1.0 0.0
5.793939393933949 1.0 0.0
5.992424242419331 1.0 0.0
6.190909090904785 1.0 0.0
6.389393939390224 1.0 0.0
6.587878787875795 1.0 0.0
6.786363636361617 1.0 0.0
6.984848484846598 1.0 0.0
7.183333333331875 1.0 0.0
7.381818181816625 1.0 0.0
7.580303030301849 1.0 0.0
7.778787878786936 1.0 0.0
7.977272727272114 1.0 0.0
8.175757575757618 1.0 0.0
8.473728813558951 1.0 0.0
8.672457627118133 1.0 0.0
8.871186440676855 1.0 0.0
9.069915254236154 1.0 0.0
9.268644067794812 1.0 0.0
9.467372881354057 1.0 0.0
9.666101694912944 1.0 0.0
9.864830508471961 1.0 0.0
10.06355932203108 1.0 0.0
10.26228813558986 1.0 0.0
10.46101694914916 1.0 0.0
10.65974576270777 1.0 0.0
10.85847457626706 1.0 0.0
11.05720338982589 1.0 0.0
11.25593220338497 1.0 0.0
11.45466101694402 1.0 0.0
11.65338983050287 1.0 0.0
11.85211864406215 1.0 0.0
12.05084745762035 1.0 0.0
12.24957627117938 1.0 0.0
12.44830508473794 1.0 0.0
12.64703389829659 1.0 0.0
12.84576271185557 1.0 0.0
13.04449152541379 1.0 0.0
13.24322033897301 1.0 0.0
13.44194915253121 1.0 0.0
13.6406779660903 1.0 0.0
13.83940677964874 1.0 0.0
14.03813559320751 1.0 0.0
14.23686440676681 1.0 0.0
14.43559322032663 1.0 0.0
14.63432203388679 1.0 0.0
14.8330508474463 1.0 0.0
15.0317796610067 1.0 0.0
15.23050847456608 1.0 0.0
15.42923728812645 1.0 0.0
15.62796610168606 1.0 0.0
15.82669491524602 1.0 0.0
16.02542372880584 1.0 0.0
16.22415254236431 1.0 0.0
16.42288135592496 1.0 0.0
16.62161016948498 1.0 0.0
16.82033898304518 1.0 0.0
17.01906779660567 1.0 0.0
17.2177966101654 1.0 0.0
17.41652542372565 1.0 0.0
17.61525423728425 1.0 0.0
17.81398305084494 1.0 0.0
18.01271186440355 1.0 0.0
18.21144067796387 1.0 0.0
18.41016949152309 1.0 0.0
18.6088983050827 1.0 0.0
18.80762711864282 1.0 0.0
19.00635593220153 1.0 0.0
19.20508474576211 1.0 0.0
19.40381355932072 1.0 0.0
19.60254237288117 1.0 0.0
19.80127118644013 1.0 0.0
8.374364406779554 1.0 0.0
8.573093220338519 1.0 0.0
8.771822033897509 1.0 0.0
8.970550847456504 1.0 0.0
9.169279661015429 1.0 0.0
9.368008474574502 1.0 0.0
9.566737288133496 1.0 0.0
9.765466101692677 1.0 0.0
9.964194915251602 1.0 0.0
10.16292372881015 1.0 0.0
10.36165254236967 1.0 0.0
10.56038135592849 1.0 0.0
10.75911016948728 1.0 0.0
10.95783898304648 1.0 0.0
11.15656779660554 1.0 0.0
11.35529661016447 1.0 0.0
11.55402542372345 1.0 0.0
11.75275423728253 1.0 0.0
11.95148305084111 1.0 0.0
12.15021186439983 1.0 0.0
12.34894067795883 1.0 0.0
12.54766949151722 1.0 0.0
12.74639830507616 1.0 0.0
12.94512711863486 1.0 0.0
13.14385593219357 1.0 0.0
13.34258474575207 1.0 0.0
13.54131355931069 1.0 0.0
13.7400423728695 1.0 0.0
13.93877118642822 1.0 0.0
14.13749999998697 1.0 0.0
14.33622881354686 1.0 0.0
14.53495762710678 1.0 0.0
14.73368644066656 1.0 0.0
14.93241525422655 1.0 0.0
15.13114406778625 1.0 0.0
15.32987288134641 1.0 0.0
15.52860169490635 1.0 0.0
15.7273305084661 1.0 0.0
15.9260593220261 1.0 0.0
16.12478813558534 1.0 0.0
16.32351694914468 1.0 0.0
16.52224576270527 1.0 0.0
16.72097457626511 1.0 0.0
16.91970338982543 1.0 0.0
17.11843220338561 1.0 0.0
17.31716101694539 1.0 0.0
17.51588983050497 1.0 0.0
17.71461864406449 1.0 0.0
17.91334745762401 1.0 0.0
18.11207627118383 1.0 0.0
18.31080508474307 1.0 0.0
18.50953389830311 1.0 0.0
18.70826271186271 1.0 0.0
18.90699152542239 1.0 0.0
19.10572033898203 1.0 0.0
19.30444915254171 1.0 0.0
19.50317796610107 1.0 0.0
19.70190677966065 1.0 0.0
19.90063559322003 1.0 0.0
20.0 0.7999999999999998 0.0
20.0 0.6000000000013869 0.0
20.0 0.4000000000016644 0.0
20.0 0.2000000000008322 0.0
20.0 0.9000000000000369 0.0
20.0 0.7000000000005904 0.0
20.0 0.5000000000017577 0.0
20.0 0.3000000000012483 0.0
20.0 0.1000000000004161 0.0
19.8 0.0 0.0
19.6 0.0 0.0
19.4 0.0 0.0
19.2 0.0 0.0
19.0 0.0 0.0
18.8 0.0 0.0
18.6 0.0 0.0
18.4 0.0 0.0
18.2 0.0 0.0
18.0 0.0 0.0
17.8 0.0 0.0
17.59999999999999 0.0 0.0
17.4 0.0 0.0
17.2 0.0 0.0
16.99999999999999 0.0 0.0
16.79999999999999 0.0 0.0
16.59999999999999 0.0 0.0
16.4 0.0 0.0
16.2 0.0 0.0
15.99999999999999 0.0 0.0
15.79999999999999 0.0 0.0
15.59999999999999 0.0 0.0
15.4 0.0 0.0
15.2 0.0 0.0
15.0 0.0 0.0
14.79999999999999 0.0 0.0
14.59999999999999 0.0 0.0
14.4 0.0 0.0
14.2 0.0 0.0
13.99999999999999 0.0 0.0
13.8 0.0 0.0
13.59999999999999 0.0 0.0
13.4 0.0 0.0
13.2 0.0 0.0
13.0 0.0 0.0
12.79999999999999 0.0 0.0
12.6 0.0 0.0
12.4 0.0 0.0
12.2 0.0 0.0
11.99999999999999 0.0 0.0
11.8 0.0 0.0
11.6 0.0 0.0
11.4 0.0 0.0
11.2 0.0 0.0
11.0 0.0 0.0
10.8 0.0 0.0
10.6 0.0 0.0
10.4 0.0 0.0
10.2 0.0 0.0
9.999999999999998 0.0 0.0
9.799999999999995 0.0 0.0
9.599999999999998 0.0 0.0
9.399999999999997 0.0 0.0
9.199999999999998 0.0 0.0
8.999999999999996 0.0 0.0
8.799999999999997 0.0 0.0
8.599999999999996 0.0 0.0
8.399999999999999 0.0 0.0
8.199999999999996 0.0 0.0
7.999999999999998 0.0 0.0
7.799999999999997 0.0 0.0
7.599999999999998 0.0 0.0
7.399999999999999 0.0 0.0
7.199999999999998 0.0 0.0
6.999999999999995 0.0 0.0
6.799999999999995 0.0 0.0
6.599999999999998 0.0 0.0
6.399999999999997 0.0 0.0
6.199999999999996 0.0 0.0
5.999999999999998 0.0 0.0
5.799999999999999 0.0 0.0
5.599999999999996 0.0 0.0
5.399999999999995 0.0 0.0
5.199999999999996 0.0 0.0
4.999999999999998 0.0 0.0
4.799999999999997 0.0 0.0
4.599999999999998 0.0 0.0
4.399999999999999 0.0 0.0
4.199999999999999 0.0 0.0
3.999999999999996 0.0 0.0
3.799999999999997 0.0 0.0
3.599999999999998 0.0 0.0
3.399999999999999 0.0 0.0
3.199999999999999 0.0 0.0
3.0 0.0 0.0
2.800000000000001 0.0 0.0
2.599999999999998 0.0 0.0
2.399999999999999 0.0 0.0
2.199999999999996 0.0 0.0
1.999999999999996 0.0 0.0
1.800000000000001 0.0 0.0
1.599999999999998 0.0 0.0
1.399999999999999 0.0 0.0
1.200000000000003 0.0 0.0
1.0 0.0 0.0
0.7999999999999972 0.0 0.0
0.5999999999999979 0.0 0.0
0.3999999999999986 0.0 0.0
0.1999999999999993 0.0 0.0
19.90000000000022 0.0 0.0
19.69999999999997 0.0 0.0
19.49999999999987 0.0 0.0
19.30000000000005 0.0 0.0
19.09999999999999 0.0 0.0
18.89999999999987 0.0 0.0
18.7 0.0 0.0
18.49999999999999 0.0 0.0
18.30000000000001 0.0 0.0
18.09999999999987 0.0 0.0
17.90000000000013 0.0 0.0
17.7 0.0 0.0
17.49999999999987 0.0 0.0
17.30000000000025 0.0 0.0
17.10000000000001 0.0 0.0
16.90000000000005 0.0 0.0
16.70000000000003 0.0 0.0
16.50000000000006 0.0 0.0
16.29999999999997 0.0 0.0
16.09999999999999 0.0 0.0
15.89999999999987 0.0 0.0
15.69999999999999 0.0 0.0
15.49999999999999 0.0 0.0
15.3 0.0 0.0
15.10000000000003 0.0 0.0
14.90000000000005 0.0 0.0
14.69999999999992 0.0 0.0
14.49999999999996 0.0 0.0
14.29999999999999 0.0 0.0
14.10000000000008 0.0 0.0
13.89999999999988 0.0 0.0
13.70000000000003 0.0 0.0
13.50000000000004 0.0 0.0
13.29999999999992 0.0 0.0
13.09999999999995 0.0 0.0
12.90000000000016 0.0 0.0
12.7 0.0 0.0
12.49999999999986 0.0 0.0
12.30000000000003 0.0 0.0
12.10000000000016 0.0 0.0
11.90000000000005 0.0 0.0
11.69999999999994 0.0 0.0
11.49999999999993 0.0 0.0
11.30000000000005 0.0 0.0
11.0999999999999 0.0 0.0
10.90000000000004 0.0 0.0
10.69999999999995 0.0 0.0
10.50000000000012 0.0 0.0
10.29999999999999 0.0 0.0
10.09999999999993 0.0 0.0
9.900000000000077 0.0 0.0
9.699999999999969 0.0 0.0
9.499999999999982 0.0 0.0
9.299999999999969 0.0 0.0
9.100000000000108 0.0 0.0
8.899999999999972 0.0 0.0
8.699999999999958 0.0 0.0
8.499999999999998 0.0 0.0
8.30000000000003 0.0 0.0
8.099999999999977 0.0 0.0
7.899999999999974 0.0 0.0
7.700000000000166 0.0 0.0
7.499999999999854 0.0 0.0
7.299999999999997 0.0 0.0
7.100000000000019 0.0 0.0
6.900000000000002 0.0 0.0
6.699999999999974 0.0 0.0
6.500000000000037 0.0 0.0
6.299999999999981 0.0 0.0
6.100000000000014 0.0 0.0
5.899999999999949 0.0 0.0
5.700000000000049 0.0 0.0
5.499999999999956 0.0 0.0
5.300000000000118 0.0 0.0
5.100000000000005 0.0 0.0
4.900000000000109 0.0 0.0
4.699999999999982 0.0 0.0
4.499999999999936 0.0 0.0
4.300000000000137 0.0 0.0
4.100000000000012 0.0 0.0
3.899999999999888 0.0 0.0
3.69999999999974 0.0 0.0
3.500000000000046 0.0 0.0
3.299999999999965 0.0 0.0
3.099999999999817 0.0 0.0
2.900000000000066 0.0 0.0
2.699999999999793 0.0 0.0
2.500000000000064 0.0 0.0
2.299999999999823 0.0 0.0
[...]
POINT_DATA 2790
VECTORS vector double
1.0 0.0 0.0
0.0 0.0 0.0
0.0 0.0 0.0
0.0 0.0 0.0
1.54394941945 0.0 0.0
1.0 0.0 0.0
0.0 0.0 0.0
0.0 0.0 0.0
0.0 0.0 0.0
0.0 0.0 0.0
0.0 0.0 0.0
0.0 0.0 0.0
0.0 0.0 0.0
0.0 0.0 0.0
0.0 0.0 0.0
0.0 0.0 0.0
0.0 0.0 0.0
0.0 0.0 0.0
0.0 0.0 0.0
0.0 0.0 0.0
0.0 0.0 0.0
0.0 0.0 0.0
0.0 0.0 0.0
0.0 0.0 0.0
0.0 0.0 0.0
0.0 0.0 0.0
0.0 0.0 0.0
0.0 0.0 0.0
0.0 0.0 0.0
0.0 0.0 0.0
0.0 0.0 0.0
0.0 0.0 0.0
0.0 0.0 0.0
0.0 0.0 0.0
0.0 0.0 0.0
0.0 0.0 0.0
0.0 0.0 0.0
0.0 0.0 0.0
0.0 0.0 0.0
0.0 0.0 0.0
0.0 0.0 0.0
0.0 0.0 0.0
0.0 0.0 0.0
0.0 0.0 0.0
0.0 0.0 0.0
0.0 0.0 0.0
0.0 0.0 0.0
0.0 0.0 0.0
0.0 0.0 0.0
0.0 0.0 0.0
0.0 0.0 0.0
0.0 0.0 0.0
0.0 0.0 0.0
0.0 0.0 0.0
0.0 0.0 0.0
0.0 0.0 0.0
0.0 0.0 0.0
0.0 0.0 0.0
0.0 0.0 0.0
0.0 0.0 0.0
0.0 0.0 0.0
0.0 0.0 0.0
0.0 0.0 0.0
0.0 0.0 0.0
0.0 0.0 0.0
0.0 0.0 0.0
0.0 0.0 0.0
0.0 0.0 0.0
0.0 0.0 0.0
0.0 0.0 0.0
0.0 0.0 0.0
0.0 0.0 0.0
0.0 0.0 0.0
0.0 0.0 0.0
0.0 0.0 0.0
0.0 0.0 0.0
0.0 0.0 0.0
0.0 0.0 0.0
0.0 0.0 0.0
0.0 0.0 0.0
0.0 0.0 0.0
0.0 0.0 0.0
0.0 0.0 0.0
0.0 0.0 0.0
0.0 0.0 0.0
0.0 0.0 0.0
0.0 0.0 0.0
0.0 0.0 0.0
0.0 0.0 0.0
0.0 0.0 0.0
0.0 0.0 0.0
0.0 0.0 0.0
0.0 0.0 0.0
0.0 0.0 0.0
0.0 0.0 0.0
0.0 0.0 0.0
0.0 0.0 0.0
0.0 0.0 0.0
0.0 0.0 0.0
0.0 0.0 0.0
0.0 0.0 0.0
0.0 0.0 0.0
0.0 0.0 0.0
0.0 0.0 0.0
0.0 0.0 0.0
0.0 0.0 0.0
0.0 0.0 0.0
0.0 0.0 0.0
0.0 0.0 0.0
0.0 0.0 0.0
0.0 0.0 0.0
0.0 0.0 0.0
0.0 0.0 0.0
0.0 0.0 0.0
0.0 0.0 0.0
0.0 0.0 0.0
0.0 0.0 0.0
0.0 0.0 0.0
0.0 0.0 0.0
0.0 0.0 0.0
0.0 0.0 0.0
0.0 0.0 0.0
0.0 0.0 0.0
0.0 0.0 0.0
0.0 0.0 0.0
0.0 0.0 0.0
0.0 0.0 0.0
0.0 0.0 0.0
0.0 0.0 0.0
0.0 0.0 0.0
0.0 0.0 0.0
0.0 0.0 0.0
0.0 0.0 0.0
0.0 0.0 0.0
0.0 0.0 0.0
0.0 0.0 0.0
0.0 0.0 0.0
0.0 0.0 0.0
0.0 0.0 0.0
0.0 0.0 0.0
0.0 0.0 0.0
0.0 0.0 0.0
0.0 0.0 0.0
0.0 0.0 0.0
0.0 0.0 0.0
0.0 0.0 0.0
0.0 0.0 0.0
0.0 0.0 0.0
0.0 0.0 0.0
0.0 0.0 0.0
0.0 0.0 0.0
0.0 0.0 0.0
0.0 0.0 0.0
0.0 0.0 0.0
0.0 0.0 0.0
0.0 0.0 0.0
0.0 0.0 0.0
0.0 0.0 0.0
0.0 0.0 0.0
0.0 0.0 0.0
0.0 0.0 0.0
0.0 0.0 0.0
0.0 0.0 0.0
0.0 0.0 0.0
0.0 0.0 0.0
0.0 0.0 0.0
0.0 0.0 0.0
0.0 0.0 0.0
0.0 0.0 0.0
0.0 0.0 0.0
0.0 0.0 0.0
0.0 0.0 0.0
0.0 0.0 0.0
0.0 0.0 0.0
0.0 0.0 0.0
0.0 0.0 0.0
0.0 0.0 0.0
0.0 0.0 0.0
0.0 0.0 0.0
0.0 0.0 0.0
0.0 0.0 0.0
0.0 0.0 0.0
0.0 0.0 0.0
0.0 0.0 0.0
0.0 0.0 0.0
0.0 0.0 0.0
0.0 0.0 0.0
0.0 0.0 0.0
0.0 0.0 0.0
0.0 0.0 0.0
0.0 0.0 0.0
0.0 0.0 0.0
0.0 0.0 0.0
0.0 0.0 0.0
0.0 0.0 0.0
0.0 0.0 0.0
0.0 0.0 0.0
0.0 0.0 0.0
0.0 0.0 0.0
0.0 0.0 0.0
0.0 0.0 0.0
0.0 0.0 0.0
0.0 0.0 0.0
0.0 0.0 0.0
0.0 0.0 0.0
0.556041666487 6.09303609201e-05 0.0
0.973338521963 -5.04009780708e-05 0.0
1.25466055318 -0.000431757156832 0.0
1.42849048957 -0.000403945837757 0.0
0.283654076542 -0.000247164692644 0.0
0.771191039314 0.00124863478499 0.0
1.11965191139 -6.98987427182e-05 0.0
1.34476930676 -0.000913020153033 0.0
1.48551403653 -0.000293370740912 0.0
1.54295257946 0.0 0.0
1.54296608143 0.0 0.0
1.54313765162 0.0 0.0
1.543447293 0.0 0.0
1.54275844933 0.0 0.0
1.54376785517 0.0 0.0
1.54396622905 0.0 0.0
1.54336101311 0.0 0.0
1.54400353513 0.0 0.0
1.54409109162 0.0 0.0
1.54348403095 0.0 0.0
1.54405907805 0.0 0.0
1.54407948647 0.0 0.0
1.54345605223 0.0 0.0
1.54240954863 0.0 0.0
1.54226061866 0.0 0.0
1.54297481622 0.0 0.0
1.54151376338 0.0 0.0
1.5405550946 0.0 0.0
1.54033061615 0.0 0.0
1.5377836078 0.0 0.0
1.53569546472 0.0 0.0
1.53454344657 0.0 0.0
1.53130754002 0.0 0.0
1.52883191435 0.0 0.0
1.5275533644 0.0 0.0
1.52428485197 0.0 0.0
1.5218435707 0.0 0.0
1.52056761614 0.0 0.0
1.51719032035 0.0 0.0
1.51457233375 0.0 0.0
1.51309722316 0.0 0.0
1.50945234373 0.0 0.0
1.50653478051 0.0 0.0
1.50479259835 0.0 0.0
1.50081512628 0.0 0.0
1.49753437796 0.0 0.0
1.49548345973 0.0 0.0
1.49079131109 0.0 0.0
1.48687371059 0.0 0.0
1.48448184943 0.0 0.0
1.47987701081 0.0 0.0
1.47562725992 0.0 0.0
1.47285785635 0.0 0.0
1.46787121973 0.0 0.0
1.46322585306 0.0 0.0
1.46008136812 0.0 0.0
1.45475946819 0.0 0.0
1.44984479555 0.0 0.0
1.44625832852 0.0 0.0
1.44067596647 0.0 0.0
1.43554180602 0.0 0.0
1.43151109307 0.0 0.0
1.42845036505 0.0 0.0
1.42206704438 0.0 0.0
1.41547923797 0.0 0.0
1.40976925798 0.0 0.0
1.40497954191 0.0 0.0
1.39874512166 0.0 0.0
1.39289659101 0.0 0.0
1.3884586238 0.0 0.0
1.38198977689 0.0 0.0
1.37578452806 0.0 0.0
1.37111807559 0.0 0.0
1.36435504988 0.0 0.0
1.35788265078 0.0 0.0
1.3528761725 0.0 0.0
1.34584931999 0.0 0.0
1.3391955036 0.0 0.0
1.33358312315 0.0 0.0
1.32841365089 0.0 0.0
1.32016578056 0.0 0.0
1.31322759401 0.0 0.0
1.30556313018 0.0 0.0
1.2971134997 0.0 0.0
1.2899358973 0.0 0.0
1.28096233555 0.0 0.0
1.27212377219 0.0 0.0
1.26406741002 0.0 0.0
1.25601528954 0.0 0.0
1.24691687255 0.0 0.0
1.23821002535 0.0 0.0
1.22927469786 0.0 0.0
1.2196480568 0.0 0.0
1.21017760058 0.0 0.0
1.20021449064 0.0 0.0
1.18990406251 0.0 0.0
1.17927038261 0.0 0.0
1.16789275477 0.0 0.0
1.15645115139 0.0 0.0
1.14411469893 0.0 0.0
1.13035414114 0.0 0.0
1.11627131273 0.0 0.0
1.1005097671 0.0 0.0
1.08213684153 0.0 0.0
1.0628600576 0.0 0.0
1.04120442176 0.0 0.0
1.01910285628 0.0 0.0
1.00421020226 0.0 0.0
1.54327243577 0.0 0.0
1.54231780262 0.0 0.0
1.5437545811 0.0 0.0
1.54245743434 0.0 0.0
1.54245793926 0.0 0.0
1.54286102258 0.0 0.0
1.5445696482 0.0 0.0
1.54304898099 0.0 0.0
1.54304344489 0.0 0.0
1.54472759957 0.0 0.0
1.54317504179 0.0 0.0
1.54312244034 0.0 0.0
1.54470906404 0.0 0.0
1.54313617738 0.0 0.0
1.54312307214 0.0 0.0
1.54184611202 0.0 0.0
1.5428467654 0.0 0.0
1.5424619855 0.0 0.0
1.5404899434 0.0 0.0
1.54065962365 0.0 0.0
1.53917014744 0.0 0.0
1.536098758 0.0 0.0
1.5352860954 0.0 0.0
1.53296980917 0.0 0.0
1.5293450515 0.0 0.0
1.52832331204 0.0 0.0
1.52596565893 0.0 0.0
1.52232510439 0.0 0.0
1.52133302449 0.0 0.0
1.51892145332 0.0 0.0
1.51512227042 0.0 0.0
1.51395322158 0.0 0.0
1.51129434496 0.0 0.0
1.50719609542 0.0 0.0
1.50577006845 0.0 0.0
1.5028098521 0.0 0.0
1.49838002725 0.0 0.0
1.49658419801 0.0 0.0
1.49313682957 0.0 0.0
1.48806523844 0.0 0.0
1.48544154789 0.0 0.0
1.48235702265 0.0 0.0
1.47695891667 0.0 0.0
1.47396343964 0.0 0.0
1.47050441532 0.0 0.0
1.46471589165 0.0 0.0
1.46134399304 0.0 0.0
1.45753869707 0.0 0.0
1.45141284753 0.0 0.0
1.44770208277 0.0 0.0
1.44356173195 0.0 0.0
1.43724681231 0.0 0.0
1.43325556839 0.0 0.0
1.42878556936 0.0 0.0
1.42435661532 0.0 0.0
1.41848768619 0.0 0.0
1.41168554369 0.0 0.0
1.40702054831 0.0 0.0
1.40187615663 0.0 0.0
1.39503436686 0.0 0.0
1.39027553756 0.0 0.0
1.38524415562 0.0 0.0
1.37792523804 0.0 0.0
1.37301227819 0.0 0.0
1.36771724255 0.0 0.0
1.36017614978 0.0 0.0
1.35492641385 0.0 0.0
1.34931166416 0.0 0.0
1.34164491461 0.0 0.0
1.33596673127 0.0 0.0
1.32984896086 0.0 0.0
1.32336246081 0.0 0.0
1.31605142388 0.0 0.0
1.3087433425 0.0 0.0
1.30076916262 0.0 0.0
1.29300806686 0.0 0.0
1.28427751966 0.0 0.0
1.27609992065 0.0 0.0
1.26756078219 0.0 0.0
1.25987661629 0.0 0.0
1.25095661366 0.0 0.0
1.24210546734 0.0 0.0
1.23354040438 0.0 0.0
1.224058461 0.0 0.0
1.21460508105 0.0 0.0
1.20498860677 0.0 0.0
1.1947987777 0.0 0.0
1.1844641748 0.0 0.0
1.17339380312 0.0 0.0
1.16207114139 0.0 0.0
1.15034473756 0.0 0.0
1.1371001352 0.0 0.0
1.12335294938 0.0 0.0
1.10862832037 0.0 0.0
1.09123066468 0.0 0.0
1.07252333733 0.0 0.0
1.05248318263 0.0 0.0
1.02992110436 0.0 0.0
1.01116513157 0.0 0.0
0.999862492761 0.0 0.0
1.0 0.0 0.0
1.0 0.0 0.0
1.0 0.0 0.0
1.0 0.0 0.0
1.0 0.0 0.0
1.0 0.0 0.0
1.0 0.0 0.0
1.0 0.0 0.0
1.0 0.0 0.0
1.16848510512 -0.0695248492071 0.0
1.22371263597 -0.0457432366017 0.0
1.22685596411 -0.0312900092525 0.0
1.09308611111 -8.81905467727e-05 0.0
1.12887933414 -0.000120314456739 0.0
1.12790758997 1.06226527933e-05 0.0
1.12487908963 9.61106164318e-05 0.0
1.12268228473 6.17875026516e-05 0.0
1.12273779187 -0.000209054319594 0.0
1.12331870865 -0.000775613279611 0.0
1.12473153689 -0.0012769692253 0.0
1.12644800051 -0.00151347784915 0.0
1.1282402568 -0.00164131660607 0.0
1.13021614501 -0.00179153289178 0.0
1.13246808354 -0.0019952014041 0.0
1.08699450996 -0.00203067889856 0.0
1.09041217519 -0.00225191334805 0.0
1.09425466408 -0.00261235734264 0.0
1.09851240607 -0.00293637184086 0.0
1.15455681295 -0.0044835722775 0.0
1.21901696864 -0.0229738935332 0.0
1.12561085583 -0.00453647143766 0.0
1.10333964868 -0.00320757439139 0.0
1.20505259918 -0.0176220378114 0.0
1.13302676028 -0.00505193170124 0.0
1.14471428185 -0.00396272251914 0.0
1.1911440159 -0.0139976305579 0.0
1.14154322642 -0.0055198508736 0.0
1.17829030512 -0.0114001926108 0.0
1.17946860551 -0.00682252394455 0.0
1.19072681554 -0.0106571500248 0.0
1.15077902509 -0.00448926127952 0.0
1.16705608403 -0.00995958748666 0.0
0.89076384905 -0.000856071444727 0.0
1.20161814567 -0.154849986516 0.0
1.29242631135 -0.0108985108057 0.0
1.28068490251 -0.0127374344552 0.0
1.31038565508 -0.00732856923281 0.0
1.26651807481 -0.0150000215521 0.0
1.31103128134 -0.00657518495239 0.0
1.21749367514 -0.0212586017434 0.0
1.24638833749 -0.0178144356814 0.0
1.31321034354 -0.00600268211683 0.0
1.31476016771 -0.00551451158787 0.0
1.31752274472 -0.00464797559288 0.0
1.31825711935 -0.00420200968705 0.0
1.31849146107 -0.00381866941503 0.0
1.31866139354 -0.0033987518501 0.0
1.3186124191 -0.00299717718395 0.0
1.30937849082 -0.0027032204871 0.0
1.30909262452 -0.00238512484033 0.0
1.30905804882 -0.0021555722772 0.0
1.20708848529 -0.0559148931467 0.0
1.30900067904 -0.00197919710641 0.0
1.30891367145 -0.00185201170767 0.0
1.30844407012 -0.00152211668248 0.0
1.17615200897 -0.0261598281889 0.0
1.30772194716 -0.000784463626062 0.0
1.13470297626 -0.0296334537026 0.0
1.12753649761 -0.0355737140524 0.0
1.30562530946 -0.000111677938169 0.0
1.30569058855 -7.10975903789e-06 0.0
0.847272026002 -0.00028976572037 0.0
1.30545769133 6.27796559668e-05 0.0
0.846926756162 -0.000109243584754 0.0
0.966982460816 -0.00718012911924 0.0
0.986739104747 -0.0085476258091 0.0
0.926057714938 -0.00310460365503 0.0
1.08152433533 -0.0193938913487 0.0
1.0108631916 -0.0108230360897 0.0
0.913581564178 -0.0034582252477 0.0
1.04140769533 -0.0143126488425 0.0
0.903342821543 -0.00322679738134 0.0
0.89430083511 -0.00277441299042 0.0
0.886244464954 -0.00213182909453 0.0
0.879844417608 -0.00217988278291 0.0
0.874166135796 -0.00198912767783 0.0
0.869058873178 -0.00176529436933 0.0
0.864588999657 -0.00156948840147 0.0
0.86078613218 -0.00131391194618 0.0
0.857295672812 -0.00122251118591 0.0
0.854257975771 -0.00109790240363 0.0
0.851442045949 -0.00101076218814 0.0
0.848902315173 -0.000905783931176 0.0
0.846868817213 -0.000671310870377 0.0
1.30960206047 9.03065829785e-05 0.0
0.845703423303 -0.000321117291377 0.0
0.845360570359 -0.000109897374688 0.0
0.845467434084 7.51040183217e-06 0.0
0.845596121273 1.65345703023e-05 0.0
1.32591028922 -0.000113474685453 0.0
1.03183640777 -0.0350342623631 0.0
1.33076933771 -5.32680394429e-05 0.0
1.31711325769 -0.00512333863492 0.0
1.31192851575 -0.00855138946167 0.0
1.30339585919 -0.00970718706092 0.0
1.32868597267 -0.00535310772872 0.0
0.829963899723 -0.00335393139487 0.0
0.87060533291 -0.00233848311964 0.0
0.887688089062 -0.00361559230424 0.0
0.897146224692 -0.00766679465331 0.0
1.17175879264 -0.0710786470197 0.0
1.02897923578 -0.0263135457256 0.0
1.33288351573 -0.000283396373625 0.0
1.38155275796 -0.00270112130866 0.0
1.3789796642 -0.00307373179209 0.0
1.13803981373 -0.0211929713826 0.0
1.3708942815 -0.00259426121012 0.0
1.07414605056 -0.0285465716111 0.0
1.3758017658 -0.00344611450737 0.0
1.37240096878 -0.00230462723291 0.0
1.37376355883 -0.00209351381288 0.0
1.36753555142 -0.00384572547681 0.0
0.940518866796 -0.0151371975903 0.0
1.37508715726 -0.0019554078985 0.0
1.36397399939 -0.00413072357712 0.0
1.37615787705 -0.00182961769819 0.0
1.37656991651 -0.00134855271652 0.0
1.1844084445 -0.0172667143482 0.0
1.37654844103 -0.000550140276697 0.0
1.36710838408 -8.40534901733e-05 0.0
1.41129941164 2.32009252015e-05 0.0
0.623038864692 0.000107219551316 0.0
1.35359429246 -0.00494805419042 0.0
1.40812684161 1.5463194186e-06 0.0
0.63876147582 0.000101094321802 0.0
0.596970530138 0.000557567720395 0.0
1.40806874347 -5.07398494447e-05 0.0
0.620680497347 0.000424527153778 0.0
1.34922543985 -0.00524921352764 0.0
1.2205899518 -0.0146332863218 0.0
0.620124780022 0.00041218831139 0.0
0.619893424649 0.000323247481216 0.0
0.620154352523 0.000161333943707 0.0
0.621248703117 3.2417586516e-05 0.0
1.34266235705 -0.00567510153168 0.0
1.25016643561 -0.012634536775 0.0
0.623023768294 -1.96917842667e-05 0.0
0.625167057886 -4.13124526173e-05 0.0
0.627548888958 -8.3917785918e-05 0.0
0.630097090954 -0.000114260547836 0.0
0.633642999848 -0.000330254034457 0.0
1.33435591016 -0.00610666061661 0.0
1.27354325522 -0.0110201278716 0.0
0.63704060709 -0.000414385040873 0.0
0.640989971055 -0.000543484103289 0.0
0.509671582482 -0.000419637609214 0.0
0.64554633611 -0.000656225850728 0.0
0.83060496184 -0.00791506285052 0.0
0.669316807763 -0.000865446126549 0.0
0.792165720086 -0.00560366661491 0.0
0.677440311411 -0.00106555294814 0.0
0.650353991926 -0.000721115160391 0.0
0.76369261608 -0.00420738714124 0.0
0.685940930267 -0.000920572352401 0.0
0.741476714014 -0.00319615950098 0.0
0.532448696145 0.000339904013817 0.0
0.618693878446 -0.0022594884593 0.0
0.552765908753 -0.000252339512323 0.0
1.32367685189 -0.00624853527893 0.0
1.29245671621 -0.00976980872762 0.0
1.30563337652 -0.00903383082795 0.0
1.32936985686 -0.00695928263614 0.0
1.35749611512 -0.00472593923068 0.0
1.36573359443 -0.0043064503098 0.0
0.63712923243 -0.00277534603323 0.0
0.8514072922 -0.0078161434925 0.0
1.40994378872 -0.00011207337116 0.0
1.03426272648 -0.050056994689 0.0
1.12381179387 -0.000589561101191 0.0
1.18971394861 -0.000318395782551 0.0
1.04067625463 -0.0199870782536 0.0
0.518066277236 4.31017818553e-05 0.0
1.10348444967 -0.0792857636807 0.0
1.01329290159 -0.0648462747951 0.0
0.566494209182 -0.00162143143611 0.0
1.42396144752 -0.0022927841537 0.0
1.42023435608 -0.0026085376881 0.0
1.42637917674 -0.00191763498142 0.0
1.41506624422 -0.00290643483593 0.0
1.2806866123 -0.295930455445 0.0
1.40869325556 -0.00321712375591 0.0
1.42981850426 -0.00170031155002 0.0
1.40221272298 -0.00343334404224 0.0
1.43295166037 -0.00153534520783 0.0
1.43589672391 -0.00145833027211 0.0
1.19587152507 -0.0103874606692 0.0
1.37241080896 -0.00429036762683 0.0
1.10770296327 -0.0162335087894 0.0
1.36238917807 -0.00457511603583 0.0
1.22982158105 -0.00911674574932 0.0
1.43849328794 -0.00138086048902 0.0
1.35122526227 -0.0048897919017 0.0
1.25859149042 -0.00808966671583 0.0
1.15586296959 -0.0123602066584 0.0
1.28302564835 -0.00722347055362 0.0
1.44017901894 -0.000898516360071 0.0
1.43963165841 -0.000207792799938 0.0
1.43869667079 6.28423930661e-05 0.0
1.43581702041 0.000318908581888 0.0
1.4372233838 0.000281401054781 0.0
1.43847533607 0.00012143282262 0.0
1.15579836828 -0.004353075539 0.0
0.74220145507 -0.00980539673262 0.0
0.794575674693 -0.0163232389321 0.0
0.85631480697 -0.0219462759268 0.0
0.71082133028 -0.00859259375815 0.0
0.486818224099 -0.000357564522399 0.0
0.486601278356 -0.00032001647984 0.0
0.486499232823 -0.000373004676812 0.0
1.20317755592 -0.00847204386543 0.0
0.486780366928 -0.000467846835473 0.0
0.487748582058 -0.000583090867104 0.0
0.489346056138 -0.000640593470587 0.0
1.12790168584 0.00033714275147 0.0
1.20775924191 -0.0107561404373 0.0
0.491292106395 -0.000665887906871 0.0
1.12822661454 -6.50968235805e-06 0.0
0.493437442433 -0.000705298634543 0.0
0.495796220664 -0.000778173034331 0.0
0.498175383318 -0.000407040246956 0.0
0.501068548336 -0.00046638175411 0.0
1.11526827901 0.000148678263935 0.0
0.504456320329 -0.000548860378615 0.0
1.11493983036 0.000614326311475 0.0
0.494941888442 -0.000348752007892 0.0
0.508362899002 -0.000634838005504 0.0
1.11469313816 0.000350703519616 0.0
0.497040334649 -0.000474912910187 0.0
1.11544881062 -0.000109701963734 0.0
0.493700715751 -0.000697245613902 0.0
0.512729888166 -0.000763716381532 0.0
1.11663696352 -0.000680698921012 0.0
0.49445948693 -0.000421560957261 0.0
0.50311375855 -0.000331303959351 0.0
1.11829916622 -0.000994214434363 0.0
0.682645220376 -0.00754656398774 0.0
1.12003719746 -0.00112306653284 0.0
1.12193965443 -0.00125512627004 0.0
0.53087284561 -0.000680463363389 0.0
1.12399084856 -0.00142856357177 0.0
1.12377667367 -0.00178740911304 0.0
1.22801551728 -0.0264655268119 0.0
0.646563813264 -0.00508696072318 0.0
0.537728345788 -0.00113933438494 0.0
1.1247856499 -0.0019070871014 0.0
1.12823032307 -0.00224534008748 0.0
0.620630363274 -0.00393625274967 0.0
0.545100935186 -0.00121518911507 0.0
1.13207748936 -0.00255819128566 0.0
0.600833380623 -0.00315363382209 0.0
0.528054033862 -0.000557586417206 0.0
1.13633332392 -0.00288619727935 0.0
1.13828389268 -0.00324030612397 0.0
0.571086872855 -0.00226652778737 0.0
1.14989854414 -0.00484121498124 0.0
1.15656599717 -0.00419890241871 0.0
1.16311070078 -0.00460248539691 0.0
1.22221503787 -0.0205260569179 0.0
1.17032058582 -0.00509714041692 0.0
1.21376819105 -0.0164403652699 0.0
1.17495370119 -0.00572846710273 0.0
1.20485028038 -0.0135161408741 0.0
1.19308401721 -0.0114267677527 0.0
1.22167637959 -0.0379339023176 0.0
1.20087646025 -0.0525521550285 0.0
1.18364852509 -0.0556955082937 0.0
1.19088627535 -0.00989268721489 0.0
1.22556482042 -0.0355328980285 0.0
1.2258203629 -0.0267911518733 0.0
1.20035651258 -0.0120858475845 0.0
1.16642885173 -0.00702728950832 0.0
1.21063049607 -0.0151833322044 0.0
1.15807696394 -0.00651204435721 0.0
1.22020529469 -0.0196636852386 0.0
1.15129256028 -0.00596274591872 0.0
0.596155475446 -0.00220270351649 0.0
1.15133167127 -0.00511721656769 0.0
0.615753726502 -0.003069671889 0.0
0.554635761514 -0.0013052549128 0.0
0.685521080209 -0.00689215902753 0.0
1.13198245858 -0.00443536402929 0.0
0.637762696454 -0.00388178640111 0.0
0.551641907784 -0.00161960579754 0.0
1.12794746595 -0.00419075041991 0.0
1.12392206486 -0.00384237955799 0.0
0.667015923225 -0.00514891172396 0.0
0.544465767643 -0.00152128685504 0.0
1.12028541444 -0.00344457612633 0.0
1.43475890078 -0.000219404288321 0.0
1.1170016179 -0.00310833789481 0.0
1.12746545205 -0.00252481241274 0.0
0.514900379408 -0.000301557698155 0.0
1.12567778812 -0.00229494981114 0.0
1.12377653342 -0.00213220161393 0.0
1.12204714465 -0.00199911230446 0.0
1.12041914159 -0.00182979508058 0.0
1.11893060732 -0.00142982162704 0.0
1.11809094847 -0.000835229143786 0.0
1.11755382504 -0.000548453826162 0.0
1.12018465679 2.56794325608e-05 0.0
1.11836207033 1.75832349765e-05 0.0
1.11915167658 -0.000244908360651 0.0
1.11633003446 -0.000723108916916 0.0
1.3816512863 -0.00403616923456 0.0
1.43790526969 -0.000182073785243 0.0
0.524311679282 -0.00127092722228 0.0
0.515036002455 -0.00125214351904 0.0
0.510755827555 -0.0011676573409 0.0
0.506994807819 -0.0010972975081 0.0
0.503738436982 -0.00103174481639 0.0
1.43847117421 -0.000138997188872 0.0
0.501161469142 -0.000631209259762 0.0
0.498727713762 -0.000678728986079 0.0
0.496439395148 -0.000618406442906 0.0
0.49435919984 -0.000590552214592 0.0
0.492505042603 -0.000562206989938 0.0
0.491099556933 -0.000485701803408 0.0
1.43946514292 -0.000743693186229 0.0
0.49039501692 -0.000354930732927 0.0
0.490265964663 -0.000266578167431 0.0
0.490468346715 -0.000220506770534 0.0
0.494007821455 0.000101484545009 0.0
1.43820088904 -0.0014022883548 0.0
1.43585277852 -0.00160643637617 0.0
1.31117479481 -0.00714379515186 0.0
1.43296359018 -0.00165314950024 0.0
1.33228225904 -0.00522697591264 0.0
0.892596382441 -0.000230750510838 0.0
1.42988625727 -0.00179311416647 0.0
1.0062239154 -0.0112620977768 0.0
1.08318421532 -0.0182719306479 0.0
1.43465220979 -0.000195088658576 0.0
1.42656084183 -0.00198052796311 0.0
1.21893097483 -0.103028704499 0.0
1.42309890446 -0.00220280742936 0.0
1.43384724823 -0.00188772242989 0.0
1.3878671539 -0.0034496579154 0.0
1.42790153111 -0.00213624447392 0.0
1.42106205317 -0.00239258203662 0.0
1.43364079451 -0.000400246276093 0.0
1.41301604588 -0.00266144718676 0.0
1.40487643595 -0.00274810760496 0.0
1.13434241458 -0.0110546348045 0.0
1.17662673529 -0.00911728231502 0.0
1.37946765048 -0.00328062056139 0.0
1.34407058837 -0.00388857454293 0.0
1.29205402484 -0.00587689460466 0.0
1.36880153719 -0.00351141294144 0.0
1.21220926767 -0.00805542964806 0.0
1.29296763537 -0.00136905103965 0.0