# vtk DataFile Version 2.0
2D Simulation Python
ASCII
DATASET UNSTRUCTURED_GRID
FIELD FieldData 1
NODES 1 2 int
14968 7299

POINTS 14968 double
0.0 1.0 0.0
1.725 1.0 0.0
8.275 1.0 0.0
10.0 1.0 0.0
10.0 0.0 0.0
0.0 0.0 0.0
0.05948275862057954 1.0 0.0
0.1189655172411507 1.0 0.0
0.1784482758617532 1.0 0.0
0.2379310344823185 1.0 0.0
0.2974137931028384 1.0 0.0
0.3568965517233564 1.0 0.0
0.4163793103438745 1.0 0.0
0.475862068964385 1.0 0.0
0.535344827584889 1.0 0.0
0.5948275862053855 1.0 0.0
0.654310344825882 1.0 0.0
0.7137931034463786 1.0 0.0
0.7732758620668752 1.0 0.0
0.8327586206874149 1.0 0.0
0.8922413793081027 1.0 0.0
0.9517241379289384 1.0 0.0
1.011206896549752 1.0 0.0
1.070689655170612 1.0 0.0
1.130172413791474 1.0 0.0
1.189655172412335 1.0 0.0
1.249137931033183 1.0 0.0
1.308620689654105 1.0 0.0
1.368103448274985 1.0 0.0
1.427586206895818 1.0 0.0
1.487068965516628 1.0 0.0
1.546551724137449 1.0 0.0
1.606034482758285 1.0 0.0
1.665517241379139 1.0 0.0
0.02974137931029072 1.0 0.0
0.08922413793086324 1.0 0.0
0.1487068965514534 1.0 0.0
0.208189655172049 1.0 0.0
0.2676724137925698 1.0 0.0
0.3271551724130939 1.0 0.0
0.3866379310336222 1.0 0.0
0.4461206896541293 1.0 0.0
0.5056034482746439 1.0 0.0
0.5650862068951479 1.0 0.0
0.624568965515645 1.0 0.0
0.6840517241361357 1.0 0.0
0.7435344827566197 1.0 0.0
0.8030172413771515 1.0 0.0
0.8624999999976763 1.0 0.0
0.9219827586185091 1.0 0.0
0.9814655172393557 1.0 0.0
1.040948275860181 1.0 0.0
1.100431034481038 1.0 0.0
1.159913793101895 1.0 0.0
1.219396551722753 1.0 0.0
1.278879310343654 1.0 0.0
1.338362068964579 1.0 0.0
1.397844827585388 1.0 0.0
1.457327586206215 1.0 0.0
1.516810344826985 1.0 0.0
1.576293103447828 1.0 0.0
1.635775862068708 1.0 0.0
1.695258620689603 1.0 0.0
1.784545454545345 1.0 0.0
1.844090909090676 1.0 0.0
1.903636363635991 1.0 0.0
1.963181818181336 1.0 0.0
2.022727272726716 1.0 0.0
2.082272727272112 1.0 0.0
2.141818181817408 1.0 0.0
2.201363636362702 1.0 0.0
2.260909090908037 1.0 0.0
2.320454545453433 1.0 0.0
2.379999999998759 1.0 0.0
2.439545454544053 1.0 0.0
2.499090909089358 1.0 0.0
2.558636363634754 1.0 0.0
2.618181818180109 1.0 0.0
2.677727272725404 1.0 0.0
2.737272727270631 1.0 0.0
2.796818181815906 1.0 0.0
2.856363636361191 1.0 0.0
2.915909090906408 1.0 0.0
2.975454545451703 1.0 0.0
3.034999999997049 1.0 0.0
3.094545454542377 1.0 0.0
3.154090909087591 1.0 0.0
3.21363636363288 1.0 0.0
3.273181818178196 1.0 0.0
3.332727272723555 1.0 0.0
3.392272727268849 1.0 0.0
3.451818181814208 1.0 0.0
3.511363636359524 1.0 0.0
3.570909090904812 1.0 0.0
3.630454545450026 1.0 0.0
3.689999999995355 1.0 0.0
3.749545454540702 1.0 0.0
3.809090909085996 1.0 0.0
3.868636363631291 1.0 0.0
3.928181818176585 1.0 0.0
3.987727272721861 1.0 0.0
4.047272727267021 1.0 0.0
4.106818181812208 1.0 0.0
4.166363636357625 1.0 0.0
4.225909090903122 1.0 0.0
4.285454545448432 1.0 0.0
4.34499999999356 1.0 0.0
4.404545454538917 1.0 0.0
4.464090909084414 1.0 0.0
4.523636363629791 1.0 0.0
4.583181818174936 1.0 0.0
4.642727272720208 1.0 0.0
4.702272727265705 1.0 0.0
4.761818181811142 1.0 0.0
4.821363636356348 1.0 0.0
4.880909090901557 1.0 0.0
4.940454545446997 1.0 0.0
4.999999999992493 1.0 0.0
5.059545454538018 1.0 0.0
5.119090909083717 1.0 0.0
5.17863636362933 1.0 0.0
5.238181818174827 1.0 0.0
5.297727272720321 1.0 0.0
5.357272727265989 1.0 0.0
5.416818181811662 1.0 0.0
5.476363636357158 1.0 0.0
5.535909090902654 1.0 0.0
5.595454545448262 1.0 0.0
5.65499999999396 1.0 0.0
5.714545454539491 1.0 0.0
5.774090909085032 1.0 0.0
5.83363636363093 1.0 0.0
5.893181818176673 1.0 0.0
5.952727272722171 1.0 0.0
6.012272727267668 1.0 0.0
6.071818181813491 1.0 0.0
6.131363636359353 1.0 0.0
6.190909090904849 1.0 0.0
6.250454545450346 1.0 0.0
6.309999999996052 1.0 0.0
6.369545454541951 1.0 0.0
6.429090909087529 1.0 0.0
6.488636363633026 1.0 0.0
6.548181818178611 1.0 0.0
6.60772727272451 1.0 0.0
6.667272727270209 1.0 0.0
6.726818181815705 1.0 0.0
6.786363636361202 1.0 0.0
6.845909090907071 1.0 0.0
6.905454545452889 1.0 0.0
6.964999999998385 1.0 0.0
7.024545454543881 1.0 0.0
7.084090909089378 1.0 0.0
7.143636363634876 1.0 0.0
7.20318181818037 1.0 0.0
7.262727272725868 1.0 0.0
7.322272727271365 1.0 0.0
7.381818181816859 1.0 0.0
7.441363636362357 1.0 0.0
7.500909090907854 1.0 0.0
7.560454545453348 1.0 0.0
7.619999999998846 1.0 0.0
7.679545454544343 1.0 0.0
7.739090909089839 1.0 0.0
7.798636363635335 1.0 0.0
7.858181818180832 1.0 0.0
7.917727272726328 1.0 0.0
7.977272727271824 1.0 0.0
8.036818181817441 1.0 0.0
8.09636363636334 1.0 0.0
8.155909090909008 1.0 0.0
8.215454545454504 1.0 0.0
1.754772727272673 1.0 0.0
1.814318181818009 1.0 0.0
1.873863636363333 1.0 0.0
1.933409090908672 1.0 0.0
1.992954545454031 1.0 0.0
2.052499999999414 1.0 0.0
2.112045454544734 1.0 0.0
2.171590909090055 1.0 0.0
2.231136363635354 1.0 0.0
2.290681818180733 1.0 0.0
2.35022727272609 1.0 0.0
2.409772727271409 1.0 0.0
2.469318181816729 1.0 0.0
2.528863636362083 1.0 0.0
2.588409090907435 1.0 0.0
2.647954545452764 1.0 0.0
2.70749999999803 1.0 0.0
2.767045454543256 1.0 0.0
2.826590909088563 1.0 0.0
2.886136363633805 1.0 0.0
2.945681818179043 1.0 0.0
3.005227272724398 1.0 0.0
3.064772727269736 1.0 0.0
3.124318181814993 1.0 0.0
3.183863636360237 1.0 0.0
3.243409090905498 1.0 0.0
3.302954545450869 1.0 0.0
3.362499999996201 1.0 0.0
3.422045454541534 1.0 0.0
3.481590909086889 1.0 0.0
3.541136363632178 1.0 0.0
3.600681818177425 1.0 0.0
3.660227272722711 1.0 0.0
3.719772727268038 1.0 0.0
3.779318181813342 1.0 0.0
3.838863636358643 1.0 0.0
3.898409090903943 1.0 0.0
3.957954545449228 1.0 0.0
4.017499999994459 1.0 0.0
4.077045454539567 1.0 0.0
4.136590909084866 1.0 0.0
4.196136363630398 1.0 0.0
4.255681818175789 1.0 0.0
4.31522727272101 1.0 0.0
4.374772727266199 1.0 0.0
4.434318181811665 1.0 0.0
4.493863636357126 1.0 0.0
4.55340909090234 1.0 0.0
4.612954545447561 1.0 0.0
4.672499999992919 1.0 0.0
4.732045454538429 1.0 0.0
4.791590909083769 1.0 0.0
4.851136363628941 1.0 0.0
4.910681818174305 1.0 0.0
4.970227272719745 1.0 0.0
5.029772727265215 1.0 0.0
5.089318181810858 1.0 0.0
5.148863636356518 1.0 0.0
5.208409090902078 1.0 0.0
5.267954545447563 1.0 0.0
5.32749999999314 1.0 0.0
5.387045454538812 1.0 0.0
5.446590909084395 1.0 0.0
5.506136363629908 1.0 0.0
5.565681818175434 1.0 0.0
5.625227272721118 1.0 0.0
5.68477272726672 1.0 0.0
5.744318181812282 1.0 0.0
5.803863636357981 1.0 0.0
5.863409090903753 1.0 0.0
5.922954545449448 1.0 0.0
5.98249999999492 1.0 0.0
6.042045454540572 1.0 0.0
6.10159090908641 1.0 0.0
6.161136363632073 1.0 0.0
6.220681818177569 1.0 0.0
6.280227272723183 1.0 0.0
6.339772727268974 1.0 0.0
6.399318181814714 1.0 0.0
6.45886363636027 1.0 0.0
6.518409090905834 1.0 0.0
6.577954545451583 1.0 0.0
6.637499999997363 1.0 0.0
6.697045454542931 1.0 0.0
6.756590909088454 1.0 0.0
6.8161363636342 1.0 0.0
6.875681818179999 1.0 0.0
6.935227272725616 1.0 0.0
6.994772727271133 1.0 0.0
7.054318181816615 1.0 0.0
7.113863636362105 1.0 0.0
7.173409090907585 1.0 0.0
7.232954545453119 1.0 0.0
7.292499999998594 1.0 0.0
7.352045454544166 1.0 0.0
7.411590909089607 1.0 0.0
7.471136363635079 1.0 0.0
7.530681818180621 1.0 0.0
7.590227272726104 1.0 0.0
7.649772727271595 1.0 0.0
7.709318181817098 1.0 0.0
7.768863636362564 1.0 0.0
7.828409090908048 1.0 0.0
7.88795454545358 1.0 0.0
7.947499999999069 1.0 0.0
8.007045454544631 1.0 0.0
8.066590909090369 1.0 0.0
8.126136363636165 1.0 0.0
8.185681818181749 1.0 0.0
8.245227272727199 1.0 0.0
8.334482758620055 1.0 0.0
8.393965517240051 1.0 0.0
8.453448275859904 1.0 0.0
8.51293103448045 1.0 0.0
8.572413793100301 1.0 0.0
8.631896551720153 1.0 0.0
8.6913793103407 1.0 0.0
8.750862068961245 1.0 0.0
8.810344827581792 1.0 0.0
8.869827586202339 1.0 0.0
8.929310344822884 1.0 0.0
8.988793103443431 1.0 0.0
9.048275862063978 1.0 0.0
9.107758620684523 1.0 0.0
9.16724137930507 1.0 0.0
9.226724137925617 1.0 0.0
9.286206896546162 1.0 0.0
9.345689655167401 1.0 0.0
9.405172413788595 1.0 0.0
9.46465517240963 1.0 0.0
9.524137931030667 1.0 0.0
9.583620689651704 1.0 0.0
9.643103448272907 1.0 0.0
9.702586206894148 1.0 0.0
9.762068965515388 1.0 0.0
9.821551724136627 1.0 0.0
9.881034482757867 1.0 0.0
9.940517241378963 1.0 0.0
8.304741379310085 1.0 0.0
8.364224137930028 1.0 0.0
8.423706896549978 1.0 0.0
8.48318965517026 1.0 0.0
8.542672413790376 1.0 0.0
8.602155172410113 1.0 0.0
8.661637931030402 1.0 0.0
8.721120689651029 1.0 0.0
8.78060344827138 1.0 0.0
8.84008620689213 1.0 0.0
8.899568965512502 1.0 0.0
8.959051724133055 1.0 0.0
9.018534482753648 1.0 0.0
9.078017241374363 1.0 0.0
9.137499999994688 1.0 0.0
9.196982758615343 1.0 0.0
9.256465517235805 1.0 0.0
9.315948275856895 1.0 0.0
9.375431034477998 1.0 0.0
9.434913793099138 1.0 0.0
9.494396551720149 1.0 0.0
9.55387931034146 1.0 0.0
9.613362068962203 1.0 0.0
9.672844827583809 1.0 0.0
9.73232758620488 1.0 0.0
9.791810344826095 1.0 0.0
9.851293103447228 1.0 0.0
9.910775862068462 1.0 0.0
9.970258620689481 1.0 0.0
10.0 0.9411764705879904 0.0
10.0 0.882352941175982 0.0
10.0 0.8235294117645425 0.0
10.0 0.764705882353186 0.0
10.0 0.7058823529418295 0.0
10.0 0.6470588235304731 0.0
10.0 0.5882352941191167 0.0
10.0 0.5294117647077601 0.0
10.0 0.4705882352960771 0.0
10.0 0.4117647058840672 0.0
10.0 0.3529411764720576 0.0
10.0 0.2941176470600479 0.0
10.0 0.2352941176480381 0.0
10.0 0.1764705882360285 0.0
10.0 0.1176470588240187 0.0
10.0 0.05882352941200908 0.0
10.0 0.9705882352939621 0.0
10.0 0.9117647058820033 0.0
10.0 0.8529411764702793 0.0
10.0 0.7941176470588772 0.0
10.0 0.7352941176474532 0.0
10.0 0.6764705882361493 0.0
10.0 0.6176470588248275 0.0
10.0 0.5588235294134586 0.0
10.0 0.5000000000020175 0.0
10.0 0.4411764705900721 0.0
10.0 0.3823529411780624 0.0
10.0 0.3235294117660528 0.0
10.0 0.264705882354043 0.0
10.0 0.2058823529420333 0.0
10.0 0.1470588235300236 0.0
10.0 0.0882352941180139 0.0
10.0 0.02941176470600448 0.0
9.940119760479043 0.0 0.0
9.880239520958083 0.0 0.0
9.820359281437126 0.0 0.0
9.760479041916167 0.0 0.0
9.70059880239521 0.0 0.0
9.640718562874252 0.0 0.0
9.580838323353293 0.0 0.0
[...]
POINT_DATA 14968
VECTORS vector double
1.0 0.0 0.0
0.0 0.0 0.0
0.0 0.0 0.0
0.0 0.0 0.0
1.09970687172 0.0 0.0
1.0 0.0 0.0
0.0 0.0 0.0
0.0 0.0 0.0
0.0 0.0 0.0
0.0 0.0 0.0
0.0 0.0 0.0
0.0 0.0 0.0
0.0 0.0 0.0
0.0 0.0 0.0
0.0 0.0 0.0
0.0 0.0 0.0
0.0 0.0 0.0
0.0 0.0 0.0
0.0 0.0 0.0
0.0 0.0 0.0
0.0 0.0 0.0
0.0 0.0 0.0
0.0 0.0 0.0
0.0 0.0 0.0
0.0 0.0 0.0
0.0 0.0 0.0
0.0 0.0 0.0
0.0 0.0 0.0
0.0 0.0 0.0
0.0 0.0 0.0
0.0 0.0 0.0
0.0 0.0 0.0
0.0 0.0 0.0
0.0 0.0 0.0
0.0 0.0 0.0
0.0 0.0 0.0
0.0 0.0 0.0
0.0 0.0 0.0
0.0 0.0 0.0
0.0 0.0 0.0
0.0 0.0 0.0
0.0 0.0 0.0
0.0 0.0 0.0
0.0 0.0 0.0
0.0 0.0 0.0
0.0 0.0 0.0
0.0 0.0 0.0
0.0 0.0 0.0
0.0 0.0 0.0
0.0 0.0 0.0
0.0 0.0 0.0
0.0 0.0 0.0
0.0 0.0 0.0
0.0 0.0 0.0
0.0 0.0 0.0
0.0 0.0 0.0
0.0 0.0 0.0
0.0 0.0 0.0
0.0 0.0 0.0
0.0 0.0 0.0
0.0 0.0 0.0
0.0 0.0 0.0
0.0 0.0 0.0
0.0 0.0 0.0
0.0 0.0 0.0
0.0 0.0 0.0
0.0 0.0 0.0
0.0 0.0 0.0
0.0 0.0 0.0
0.0 0.0 0.0
0.0 0.0 0.0
0.0 0.0 0.0
0.0 0.0 0.0
0.0 0.0 0.0
0.0 0.0 0.0
0.0 0.0 0.0
0.0 0.0 0.0
0.0 0.0 0.0
0.0 0.0 0.0
0.0 0.0 0.0
0.0 0.0 0.0
0.0 0.0 0.0
0.0 0.0 0.0
0.0 0.0 0.0
0.0 0.0 0.0
0.0 0.0 0.0
0.0 0.0 0.0
0.0 0.0 0.0
0.0 0.0 0.0
0.0 0.0 0.0
0.0 0.0 0.0
0.0 0.0 0.0
0.0 0.0 0.0
0.0 0.0 0.0
0.0 0.0 0.0
0.0 0.0 0.0
0.0 0.0 0.0
0.0 0.0 0.0
0.0 0.0 0.0
0.0 0.0 0.0
0.0 0.0 0.0
0.0 0.0 0.0
0.0 0.0 0.0
0.0 0.0 0.0
0.0 0.0 0.0
0.0 0.0 0.0
0.0 0.0 0.0
0.0 0.0 0.0
0.0 0.0 0.0
0.0 0.0 0.0
0.0 0.0 0.0
0.0 0.0 0.0
0.0 0.0 0.0
0.0 0.0 0.0
0.0 0.0 0.0
0.0 0.0 0.0
0.0 0.0 0.0
0.0 0.0 0.0
0.0 0.0 0.0
0.0 0.0 0.0
0.0 0.0 0.0
0.0 0.0 0.0
0.0 0.0 0.0
0.0 0.0 0.0
0.0 0.0 0.0
0.0 0.0 0.0
0.0 0.0 0.0
0.0 0.0 0.0
0.0 0.0 0.0
0.0 0.0 0.0
0.0 0.0 0.0
0.0 0.0 0.0
0.0 0.0 0.0
0.0 0.0 0.0
0.0 0.0 0.0
0.0 0.0 0.0
0.0 0.0 0.0
0.0 0.0 0.0
0.0 0.0 0.0
0.0 0.0 0.0
0.0 0.0 0.0
0.0 0.0 0.0
0.0 0.0 0.0
0.0 0.0 0.0
0.0 0.0 0.0
0.0 0.0 0.0
0.0 0.0 0.0
0.0 0.0 0.0
0.0 0.0 0.0
0.0 0.0 0.0
0.0 0.0 0.0
0.0 0.0 0.0
0.0 0.0 0.0
0.0 0.0 0.0
0.0 0.0 0.0
0.0 0.0 0.0
0.0 0.0 0.0
0.0 0.0 0.0
0.0 0.0 0.0
0.0 0.0 0.0
0.0 0.0 0.0
0.0 0.0 0.0
0.0 0.0 0.0
0.0 0.0 0.0
0.0 0.0 0.0
0.0 0.0 0.0
0.0 0.0 0.0
0.0 0.0 0.0
0.0 0.0 0.0
0.0 0.0 0.0
0.0 0.0 0.0
0.0 0.0 0.0
0.0 0.0 0.0
0.0 0.0 0.0
0.0 0.0 0.0
0.0 0.0 0.0
0.0 0.0 0.0
0.0 0.0 0.0
0.0 0.0 0.0
0.0 0.0 0.0
0.0 0.0 0.0
0.0 0.0 0.0
0.0 0.0 0.0
0.0 0.0 0.0
0.0 0.0 0.0
0.0 0.0 0.0
0.0 0.0 0.0
0.0 0.0 0.0
0.0 0.0 0.0
0.0 0.0 0.0
0.0 0.0 0.0
0.0 0.0 0.0
0.0 0.0 0.0
0.0 0.0 0.0
0.0 0.0 0.0
0.0 0.0 0.0
0.0 0.0 0.0
0.0 0.0 0.0
0.0 0.0 0.0
0.0 0.0 0.0
0.0 0.0 0.0
0.0 0.0 0.0
0.0 0.0 0.0
0.0 0.0 0.0
0.0 0.0 0.0
0.0 0.0 0.0
0.0 0.0 0.0
0.0 0.0 0.0
0.0 0.0 0.0
0.0 0.0 0.0
0.0 0.0 0.0
0.0 0.0 0.0
0.0 0.0 0.0
0.0 0.0 0.0
0.0 0.0 0.0
0.0 0.0 0.0
0.0 0.0 0.0
0.0 0.0 0.0
0.0 0.0 0.0
0.0 0.0 0.0
0.0 0.0 0.0
0.0 0.0 0.0
0.0 0.0 0.0
0.0 0.0 0.0
0.0 0.0 0.0
0.0 0.0 0.0
0.0 0.0 0.0
0.0 0.0 0.0
0.0 0.0 0.0
0.0 0.0 0.0
0.0 0.0 0.0
0.0 0.0 0.0
0.0 0.0 0.0
0.0 0.0 0.0
0.0 0.0 0.0
0.0 0.0 0.0
0.0 0.0 0.0
0.0 0.0 0.0
0.0 0.0 0.0
0.0 0.0 0.0
0.0 0.0 0.0
0.0 0.0 0.0
0.0 0.0 0.0
0.0 0.0 0.0
0.0 0.0 0.0
0.0 0.0 0.0
0.0 0.0 0.0
0.0 0.0 0.0
0.0 0.0 0.0
0.0 0.0 0.0
0.0 0.0 0.0
0.0 0.0 0.0
0.0 0.0 0.0
0.0 0.0 0.0
0.0 0.0 0.0
0.0 0.0 0.0
0.0 0.0 0.0
0.0 0.0 0.0
0.0 0.0 0.0
0.0 0.0 0.0
0.0 0.0 0.0
0.0 0.0 0.0
0.0 0.0 0.0
0.0 0.0 0.0
0.0 0.0 0.0
0.0 0.0 0.0
0.0 0.0 0.0
0.0 0.0 0.0
0.0 0.0 0.0
0.0 0.0 0.0
0.0 0.0 0.0
0.0 0.0 0.0
0.0 0.0 0.0
0.0 0.0 0.0
0.0 0.0 0.0
0.0 0.0 0.0
0.0 0.0 0.0
0.0 0.0 0.0
0.0 0.0 0.0
0.0 0.0 0.0
0.0 0.0 0.0
0.0 0.0 0.0
0.0 0.0 0.0
0.0 0.0 0.0
0.0 0.0 0.0
0.0 0.0 0.0
0.0 0.0 0.0
0.0 0.0 0.0
0.0 0.0 0.0
0.0 0.0 0.0
0.0 0.0 0.0
0.0 0.0 0.0
0.0 0.0 0.0
0.0 0.0 0.0
0.0 0.0 0.0
0.0 0.0 0.0
0.0 0.0 0.0
0.0 0.0 0.0
0.0 0.0 0.0
0.0 0.0 0.0
0.0 0.0 0.0
0.0 0.0 0.0
0.0 0.0 0.0
0.0 0.0 0.0
0.0 0.0 0.0
0.0 0.0 0.0
0.0 0.0 0.0
0.0 0.0 0.0
0.0 0.0 0.0
0.0 0.0 0.0
0.0 0.0 0.0
0.0 0.0 0.0
0.0 0.0 0.0
0.0 0.0 0.0
0.0 0.0 0.0
0.0 0.0 0.0
0.0 0.0 0.0
0.0 0.0 0.0
0.0 0.0 0.0
0.0 0.0 0.0
0.0 0.0 0.0
0.0 0.0 0.0
0.0 0.0 0.0
0.0 0.0 0.0
0.0 0.0 0.0
0.0 0.0 0.0
0.0 0.0 0.0
0.0 0.0 0.0
0.0 0.0 0.0
0.0 0.0 0.0
0.0 0.0 0.0
0.0 0.0 0.0
0.0 0.0 0.0
0.0 0.0 0.0
0.0 0.0 0.0
0.0 0.0 0.0
0.0 0.0 0.0
0.0 0.0 0.0
0.0 0.0 0.0
0.440717564055 0.000163190145485 0.0
0.768796633067 -2.228788352e-06 0.0
0.966022077745 0.000185024014921 0.0
1.05749320568 -0.00018860421988 0.0
1.09051818923 -2.10348233843e-05 0.0
1.09804382797 -0.00018194800753 0.0
1.10291925755 -0.000134175593924 0.0
1.10271325159 7.11727084002e-05 0.0
1.10199524487 0.00011137539013 0.0
1.10146683019 4.1759904246e-05 0.0
1.10114550946 5.27901037884e-05 0.0
1.10102804578 -9.73089455978e-05 0.0
1.10166659974 1.54353254741e-05 0.0
1.10070048155 5.47112938756e-05 0.0
1.10110101191 3.29246353718e-05 0.0
1.10057095299 8.97585272642e-05 0.0
0.219871137665 0.000878447013293 0.0
0.601532201647 9.06992749986e-05 0.0
0.860011136235 -0.000400591197119 0.0
1.00835146239 -0.000906392432703 0.0
1.07342244485 0.000513186103423 0.0
1.09610190619 0.000479574099757 0.0
1.10244047356 9.64753755305e-05 0.0
1.10487600087 -6.97260516322e-05 0.0
1.10519073719 -9.19760899963e-05 0.0
1.10426930766 0.000141114042145 0.0
1.10461906013 0.000354218688934 0.0
1.10373501183 0.000506081469696 0.0
1.10444156007 -2.25721242848e-05 0.0
1.10433641029 -0.00013816880314 0.0
1.10367045744 -6.73018623791e-05 0.0
1.10357038276 -0.000135693832607 0.0
1.10400075015 -2.45610074656e-05 0.0
1.10089402165 0.0 0.0
1.10118756567 0.0 0.0
1.10149407566 0.0 0.0
1.10150925938 0.0 0.0
1.10147818824 0.0 0.0
1.10062584205 0.0 0.0
1.10174540731 0.0 0.0
1.09992647094 0.0 0.0
1.10195142469 0.0 0.0
1.10101891611 0.0 0.0
1.10001380364 0.0 0.0
1.10201687369 0.0 0.0
1.10150162831 0.0 0.0
1.10105636604 0.0 0.0
1.10104944062 0.0 0.0
1.10135882203 0.0 0.0
1.10069515275 0.0 0.0
1.10148265145 0.0 0.0
1.10111427638 0.0 0.0
1.10120484189 0.0 0.0
1.10182777883 0.0 0.0
1.10205111714 0.0 0.0
1.10084933314 0.0 0.0
1.10135986867 0.0 0.0
1.10081872616 0.0 0.0
1.10066376238 0.0 0.0
1.10103326663 0.0 0.0
1.10210048617 0.0 0.0
1.10132275335 0.0 0.0
1.1012405648 0.0 0.0
1.10167461687 0.0 0.0
1.10218128168 0.0 0.0
1.10050181452 0.0 0.0
1.10194331494 0.0 0.0
1.09967075553 0.0 0.0
1.10250406734 0.0 0.0
1.10179133575 0.0 0.0
1.10140828559 0.0 0.0
1.10143531092 0.0 0.0
1.10189128358 0.0 0.0
1.10214602765 0.0 0.0
1.10041344139 0.0 0.0
1.10204406872 0.0 0.0
1.09956990059 0.0 0.0
1.10240097821 0.0 0.0
1.10219700646 0.0 0.0
1.10160154279 0.0 0.0
1.10152536101 0.0 0.0
1.10192544944 0.0 0.0
1.10216533383 0.0 0.0
1.10040337889 0.0 0.0
1.10211559923 0.0 0.0
1.09975960899 0.0 0.0
1.10247412357 0.0 0.0
1.1022005425 0.0 0.0
1.10154198739 0.0 0.0
1.10147566899 0.0 0.0
1.10189686832 0.0 0.0
1.10215716044 0.0 0.0
1.10038829734 0.0 0.0
1.1019988427 0.0 0.0
1.09964152192 0.0 0.0
1.10230842352 0.0 0.0
1.10198501651 0.0 0.0
1.10127614319 0.0 0.0
1.10103684937 0.0 0.0
1.10184721276 0.0 0.0
1.10121070196 0.0 0.0
1.10139322659 0.0 0.0
1.10164383456 0.0 0.0
1.10219589454 0.0 0.0
1.10118376366 0.0 0.0
1.09987109333 0.0 0.0
1.10202855552 0.0 0.0
1.10057567825 0.0 0.0
1.10021592913 0.0 0.0
1.10029941533 0.0 0.0
1.10103185314 0.0 0.0
1.10233088355 0.0 0.0
1.1005975618 0.0 0.0
1.10007322409 0.0 0.0
1.10063721918 0.0 0.0
1.10124337453 0.0 0.0
1.10172787637 0.0 0.0
1.09997871201 0.0 0.0
1.10133497945 0.0 0.0
1.10237601006 0.0 0.0
1.1017787485 0.0 0.0
1.10149455488 0.0 0.0
1.10093465082 0.0 0.0
1.10110060138 0.0 0.0
1.10108036236 0.0 0.0
1.10100242743 0.0 0.0
1.10168747264 0.0 0.0
1.10208839277 0.0 0.0
1.09951461626 0.0 0.0
1.10185122331 0.0 0.0
1.10054329274 0.0 0.0
1.1021763611 0.0 0.0
1.10183772542 0.0 0.0
1.10145630302 0.0 0.0
1.10150918428 0.0 0.0
1.10207689002 0.0 0.0
1.10241534029 0.0 0.0
1.09967579953 0.0 0.0
1.10201201102 0.0 0.0
1.10037833098 0.0 0.0
1.10212998914 0.0 0.0
1.10185903637 0.0 0.0
1.1014224547 0.0 0.0
1.10147252464 0.0 0.0
1.10212315452 0.0 0.0
1.10238824206 0.0 0.0
1.09966511916 0.0 0.0
1.10200436392 0.0 0.0
1.10028107652 0.0 0.0
1.10203027275 0.0 0.0
1.10177982103 0.0 0.0
1.10136753322 0.0 0.0
1.10143185504 0.0 0.0
1.10201101573 0.0 0.0
1.1022002434 0.0 0.0
1.09936371953 0.0 0.0
1.10181834233 0.0 0.0
1.10017443416 0.0 0.0
1.10188600319 0.0 0.0
1.1016111873 0.0 0.0
1.10112844475 0.0 0.0
1.10106532808 0.0 0.0
1.10139847947 0.0 0.0
1.10204145659 0.0 0.0
1.09914112617 0.0 0.0
1.10128298253 0.0 0.0
1.09972431323 0.0 0.0
1.10119341664 0.0 0.0
1.10047787928 0.0 0.0
1.09977719297 0.0 0.0
1.09950255399 0.0 0.0
1.09978247143 0.0 0.0
1.09823391798 0.0 0.0
1.09720783308 0.0 0.0
1.09646994397 0.0 0.0
1.09585202307 0.0 0.0
1.09410465394 0.0 0.0
1.09329517314 0.0 0.0
1.09105371423 0.0 0.0
1.0881929598 0.0 0.0
1.08515336993 0.0 0.0
1.08183487569 0.0 0.0
1.07764056618 0.0 0.0
1.07330318609 0.0 0.0
1.06818084048 0.0 0.0
1.06246873462 0.0 0.0
1.05578183998 0.0 0.0
1.04824968222 0.0 0.0
1.04179281638 0.0 0.0
1.03413988593 0.0 0.0
1.02733985853 0.0 0.0
1.02217049473 0.0 0.0
1.01693138812 0.0 0.0
1.01263030515 0.0 0.0
1.00876984611 0.0 0.0
1.00553654688 0.0 0.0
1.00298944896 0.0 0.0
1.00118953397 0.0 0.0
1.00016189869 0.0 0.0
1.10400890611 0.0 0.0
1.10377449552 0.0 0.0
1.10428729741 0.0 0.0
1.10381683763 0.0 0.0
1.10426962679 0.0 0.0
1.10396118652 0.0 0.0
1.10364376054 0.0 0.0
1.10402043716 0.0 0.0
1.10283733213 0.0 0.0
1.10421043556 0.0 0.0
1.10341499537 0.0 0.0
1.10363648212 0.0 0.0
1.10381104848 0.0 0.0
1.10421842933 0.0 0.0
1.10337573248 0.0 0.0
1.10417862 0.0 0.0
1.10387491002 0.0 0.0
1.10338944749 0.0 0.0
1.1035133055 0.0 0.0
1.10413662969 0.0 0.0
1.10368752785 0.0 0.0
1.10428224685 0.0 0.0
1.10401907044 0.0 0.0
1.10359295234 0.0 0.0
1.10348603573 0.0 0.0
1.10414983345 0.0 0.0
1.10335837938 0.0 0.0
1.10421012298 0.0 0.0
1.10425012239 0.0 0.0
1.10360278578 0.0 0.0
1.1043312187 0.0 0.0
1.10400768565 0.0 0.0
1.10376116472 0.0 0.0
1.10380387681 0.0 0.0
1.10380951296 0.0 0.0
1.10377331773 0.0 0.0
1.10398917985 0.0 0.0
1.10438478443 0.0 0.0
1.10366106282 0.0 0.0
1.10436789944 0.0 0.0
1.10412019125 0.0 0.0
1.10380093501 0.0 0.0
1.10380120254 0.0 0.0
1.10379637742 0.0 0.0
1.10384786278 0.0 0.0
1.10428084085 0.0 0.0
1.10441522669 0.0 0.0
1.10377001572 0.0 0.0
1.1044161435 0.0 0.0
1.1041522307 0.0 0.0
1.10384904872 0.0 0.0
1.10383902487 0.0 0.0
1.10390268407 0.0 0.0
1.10394484972 0.0 0.0
1.10429340513 0.0 0.0
1.10442937608 0.0 0.0
1.10374919959 0.0 0.0
1.10442687377 0.0 0.0
1.10415426877 0.0 0.0
1.10383538305 0.0 0.0
1.10379897692 0.0 0.0
1.10382551655 0.0 0.0
1.10380960544 0.0 0.0
1.10412353987 0.0 0.0
1.10422126127 0.0 0.0
1.10357637721 0.0 0.0
1.10396815936 0.0 0.0
1.10407533687 0.0 0.0
1.10339124328 0.0 0.0
1.10352754377 0.0 0.0
1.10403327204 0.0 0.0
1.10397428785 0.0 0.0
1.1032710334 0.0 0.0
1.10327181215 0.0 0.0
1.10384659693 0.0 0.0
1.10298325998 0.0 0.0
1.10369619678 0.0 0.0
1.10327236412 0.0 0.0
1.10389469671 0.0 0.0
1.10350369832 0.0 0.0
1.10375105307 0.0 0.0
1.10311091206 0.0 0.0
1.10404925817 0.0 0.0
1.10365873156 0.0 0.0
1.10344275534 0.0 0.0
1.10346039013 0.0 0.0
1.10416743709 0.0 0.0
1.1042015803 0.0 0.0
1.10367912042 0.0 0.0
1.10352300858 0.0 0.0
1.10416049257 0.0 0.0
1.1036860248 0.0 0.0
1.10414529422 0.0 0.0
1.10358741171 0.0 0.0
1.10382459909 0.0 0.0
1.1036970169 0.0 0.0
1.10372723696 0.0 0.0
1.1037107099 0.0 0.0
1.1038540233 0.0 0.0
1.10408691816 0.0 0.0
1.10434085341 0.0 0.0
1.10367480851 0.0 0.0
1.1043397553 0.0 0.0
1.10417306861 0.0 0.0
1.10386683979 0.0 0.0
1.10385878782 0.0 0.0
1.10379707711 0.0 0.0
1.10380951413 0.0 0.0
1.10412116803 0.0 0.0
1.10438068166 0.0 0.0
1.10369079854 0.0 0.0
1.10436164663 0.0 0.0
1.10420945799 0.0 0.0
1.10385287957 0.0 0.0
1.10379916793 0.0 0.0
1.10372083957 0.0 0.0
1.103712502 0.0 0.0
1.10400635855 0.0 0.0
1.10425820309 0.0 0.0
1.10359657562 0.0 0.0
1.1042236088 0.0 0.0
1.10407900301 0.0 0.0
1.1036356565 0.0 0.0
1.10357306975 0.0 0.0
1.1035649739 0.0 0.0
1.10354863704 0.0 0.0
1.10385396831 0.0 0.0
1.10407578246 0.0 0.0
1.10333200845 0.0 0.0
1.10400854223 0.0 0.0
1.10354987872 0.0 0.0
1.1032502272 0.0 0.0
1.10317746389 0.0 0.0
1.10303338009 0.0 0.0
1.10281901013 0.0 0.0
1.1028365837 0.0 0.0
1.10286847358 0.0 0.0
1.10183296811 0.0 0.0
1.10199499098 0.0 0.0
1.10140019786 0.0 0.0
1.09995467703 0.0 0.0
1.09976975409 0.0 0.0
1.09812077087 0.0 0.0
1.09685729601 0.0 0.0
1.09548108867 0.0 0.0
1.09351517745 0.0 0.0
1.09072875459 0.0 0.0
1.08794767016 0.0 0.0
1.08421545046 0.0 0.0
1.08021716735 0.0 0.0
1.07578810465 0.0 0.0
1.07062919496 0.0 0.0
1.06495988884 0.0 0.0
1.05814707867 0.0 0.0
1.0510753224 0.0 0.0
1.04364512675 0.0 0.0
1.03657660842 0.0 0.0
1.02961450961 0.0 0.0
1.02435406637 0.0 0.0
1.01900632262 0.0 0.0
1.0145890421 0.0 0.0
1.01055499648 0.0 0.0
1.00709312572 0.0 0.0
1.00427964982 0.0 0.0
1.00211151791 0.0 0.0
1.00067516112 0.0 0.0
0.999966397361 0.0 0.0
1.0 0.0 0.0
1.0 0.0 0.0
1.0 0.0 0.0
1.0 0.0 0.0
1.0 0.0 0.0
1.0 0.0 0.0
1.0 0.0 0.0
1.0 0.0 0.0
1.0 0.0 0.0
1.0 0.0 0.0
1.0 0.0 0.0
1.0 0.0 0.0
1.0 0.0 0.0
1.0 0.0 0.0
1.0 0.0 0.0
1.0 0.0 0.0
1.0 0.0 0.0
1.0 0.0 0.0
1.0 0.0 0.0
1.0 0.0 0.0
1.0 0.0 0.0
1.0 0.0 0.0
1.0 0.0 0.0
1.0 0.0 0.0
1.0 0.0 0.0
1.0 0.0 0.0
1.0 0.0 0.0
1.0 0.0 0.0
1.0 0.0 0.0
1.0 0.0 0.0
1.0 0.0 0.0
1.0 0.0 0.0
1.0 0.0 0.0
1.10305495373 -0.000278317535914 0.0
1.05772917773 -0.0511842332434 0.0
1.10330995395 -1.69316173461e-06 0.0
1.10834121821 -0.0339467268701 0.0
1.10361932032 0.000155518410554 0.0
1.10482304719 -0.00348446742728 0.0
1.10381647594 -0.000466473834066 0.0
1.10360903708 -2.30010994608e-06 0.0
1.10338507142 -0.000153694465808 0.0
1.10371270373 4.19232770294e-05 0.0
1.10373175352 -0.00012624753241 0.0
1.10377665633 5.13564508152e-05 0.0
1.10380113142 8.26106667598e-05 0.0
1.10392987025 -0.000356671987885 0.0
1.10356994325 0.000135387567697 0.0
1.10243974208 -0.000373407417733 0.0
1.10307096068 5.62503732199e-05 0.0
1.10286517924 0.000392548010724 0.0
1.09708052122 -0.000180068329527 0.0
1.15140222278 -0.0692380558638 0.0
1.10297026111 -7.44642956972e-05 0.0
1.06352823999 -0.0372471151004 0.0
1.09687379422 0.000303059995197 0.0
1.10614602732 -0.00591978151863 0.0
1.10284132168 4.0075551974e-06 0.0
1.09720151437 6.08777013768e-05 0.0
1.09771559741 -0.000719293069207 0.0
1.09696660686 0.000647438991141 0.0
1.09689736997 0.000333200355222 0.0
1.10280675417 -0.000251676729048 0.0
1.10299792493 7.61561743454e-05 0.0
1.09702788836 -0.000295572077542 0.0
1.09708504292 0.00021185848626 0.0
1.09726504086 -1.52485103355e-05 0.0
1.09729192945 0.00033435616255 0.0
1.09709637421 0.000308431242166 0.0
1.0979790109 -0.00110657861855 0.0
1.09756030258 8.1777807727e-05 0.0
1.10328894224 -7.26973461053e-06 0.0
1.1032194431 -6.35322448761e-05 0.0
1.10322247117 7.79683841913e-05 0.0
1.10307527609 -0.000160558650965 0.0
1.10295298866 -0.000136194052648 0.0
1.10314648712 6.25029862212e-05 0.0
1.10359069928 1.78822221672e-05 0.0
1.10310988798 -0.00125971314141 0.0
1.09950093323 -0.00974271205385 0.0
1.1030847825 9.12875283131e-05 0.0
1.10288200499 0.000100642614014 0.0
1.10265115908 9.54606275877e-05 0.0
1.0899974075 0.00064849288634 0.0
1.09112362 0.000461208261102 0.0
1.08912254059 -0.0913369514926 0.0
1.09055475684 0.000288339791503 0.0
1.103400349 -5.15771597088e-05 0.0
1.01358102205 -0.020342024158 0.0
1.06710906483 -0.000278756525397 0.0
1.09386760764 -0.0170831176992 0.0
1.05937466317 0.000228605589288 0.0
1.0619341471 -0.000363696117315 0.0
1.10231184961 5.61266137165e-05 0.0
1.10245856756 2.47509966663e-05 0.0
1.10245246101 -0.000154852900875 0.0
1.10306363145 4.20904562866e-05 0.0
1.06799918736 -0.000561568608277 0.0
1.06716145601 -0.000365126784878 0.0
1.06678597587 -0.000478268925775 0.0
1.06730600384 -0.000276739991768 0.0
1.06725633545 -0.000336095541739 0.0
1.0671629879 -0.000268496681065 0.0
1.06722820999 0.000143136796269 0.0
1.06747745441 -0.000695950350189 0.0
1.0668504333 0.000287270629883 0.0
1.10280010155 -0.000131491866258 0.0
1.1024292723 -6.87025715974e-05 0.0
1.10251277342 2.34388838448e-05 0.0
1.10222855291 -9.74291022261e-05 0.0
1.10244472657 4.24831462793e-05 0.0
1.06783468733 -0.000989550028503 0.0
1.06803276799 -0.000383764308655 0.0
1.10175500141 -0.000335040483572 0.0
1.10205820156 2.62970668145e-05 0.0
1.1026402488 -1.62517437978e-05 0.0
1.08273121101 -0.0229283501037 0.0
1.1029774195 4.21227725102e-05 0.0
1.10114847997 -0.00278465421099 0.0
1.06677085475 -0.00119347287555 0.0
1.17839483336 -0.092351377592 0.0
1.10282440795 -0.000104687436309 0.0
1.03327911957 -0.0226579340381 0.0
1.04954560917 0.00137004165769 0.0
1.1024745576 0.00012219398102 0.0
1.01642587246 -0.0357155885804 0.0
1.10372886698 6.76644783021e-05 0.0
1.10299814982 0.000381150510039 0.0
1.10360573007 0.000180010970361 0.0
1.10347862604 5.30220732922e-05 0.0
1.10345508456 0.000129122547238 0.0
1.10331393841 -0.000599559831722 0.0
1.10351406831 -4.95685064926e-05 0.0
1.10367755099 -5.85112071964e-05 0.0
1.10318469285 0.000207190721849 0.0
1.105816384 -0.00777642168028 0.0
1.10341398387 1.25556378094e-05 0.0
1.10375638704 -0.00158417338669 0.0
1.10337830109 -0.000206373780072 0.0
1.10347890196 7.58593407552e-05 0.0
1.10312660384 1.57571966737e-05 0.0
1.1033673552 9.20107107247e-05 0.0
1.09982714941 -0.0553812736765 0.0
1.10319613676 -9.99417379348e-05 0.0
1.10261987643 3.34347056485e-05 0.0
1.091144953 -0.00919458324389 0.0
1.10323526157 4.95067094242e-05 0.0
1.10342112999 -6.20682754904e-05 0.0
1.10339750058 -5.6790772324e-06 0.0
1.10342374653 2.21369205269e-05 0.0
1.10330290026 -5.98194630258e-05 0.0
1.10334506846 2.51617778305e-05 0.0
1.10310889084 -6.99149768307e-05 0.0
1.10341863941 6.09528340261e-06 0.0
1.10274832794 -0.000521418258137 0.0
1.0985062649 -0.00424671635642 0.0
1.10324057793 3.96225180316e-05 0.0
0.964272855267 0.00027713041494 0.0
1.00999175147 -0.0234988636192 0.0
0.962686407843 -0.000527715985941 0.0
0.964397535808 0.000758323848124 0.0
0.961739538536 0.00103111730972 0.0
0.964618210674 -0.000733516254591 0.0
0.968919233306 -0.00134159437453 0.0
0.961390929537 -0.00063427331211 0.0
0.963509013795 -8.51348219121e-08 0.0
0.96299062348 0.00109682802224 0.0
0.961143346364 0.000510427443825 0.0
0.961056889971 0.000483903477573 0.0
0.963040373041 -0.000948137128351 0.0
0.96293025428 0.000792435482084 0.0
0.961104480414 0.000183676389306 0.0
0.960931456347 -0.000602436221185 0.0
0.962782100511 -0.000729290723904 0.0
0.962594050432 0.00080831267539 0.0
0.962010207455 -0.00137127341818 0.0
0.960964179792 0.000674817838339 0.0
0.960902192122 0.000747541940727 0.0
0.960631239633 -0.000276371460787 0.0
0.96297169722 -0.000273176534358 0.0
0.960939872113 0.00110485663594 0.0
0.961560066691 -0.00131045943741 0.0
0.961607037515 0.000900930834398 0.0
1.10253385606 -2.07854214374e-05 0.0
1.10354036738 -0.000303326850672 0.0
1.08885772361 -0.0601591524706 0.0
1.10285336837 5.77500882857e-05 0.0
1.1033600424 9.50572746541e-05 0.0
1.10349791184 -2.52992997664e-05 0.0
1.10328010644 5.61198423519e-05 0.0
1.10311650406 -0.000249135069032 0.0
1.10355580094 8.53977346045e-05 0.0
1.10351362266 -5.35739281251e-05 0.0
1.10369000366 -0.000891192798124 0.0
1.10349818838 -2.66248503898e-05 0.0
1.10343717261 -0.000672572141161 0.0
1.10345719942 0.000212378779486 0.0
1.10318777885 0.000166740670611 0.0
1.10953124306 -0.0163714616244 0.0
1.10292266189 9.70639254473e-05 0.0
0.944370092205 -0.00109945899104 0.0
0.943357329034 -0.000396380600691 0.0
1.10268636659 -3.40105352965e-05 0.0
1.06441741037 -0.0195371370179 0.0
1.15848664365 -0.143491864432 0.0
0.965283488053 0.000375239830485 0.0
0.946726755326 -0.000872970996519 0.0
1.04792331321 -0.0478398082638 0.0
1.10273572364 2.710780853e-05 0.0
1.10132127226 -0.00114984553387 0.0
1.10316776181 1.18631511465e-05 0.0
1.102882482 -0.000120493213237 0.0
1.10317999764 2.11250405686e-05 0.0
1.10300626183 -6.2558762448e-05 0.0
1.10320369257 -1.56591649509e-05 0.0
1.00374957346 -0.00691760500752 0.0
1.10325792972 -2.10151630727e-05 0.0
1.10319391077 -2.30130717988e-05 0.0
1.10245318968 -0.00013430330161 0.0
1.10308816121 4.41458838332e-05 0.0
1.1026098097 -0.000161742072969 0.0
1.1022589929 3.15812005664e-05 0.0
1.10271636406 5.77102676062e-05 0.0
1.10285197798 -5.84322247039e-06 0.0
1.09696354014 -0.019953366184 0.0
0.936250758054 0.000410819808149 0.0