# vtk DataFile Version 2.0
2D Simulation Python
ASCII
DATASET UNSTRUCTURED_GRID
FIELD FieldData 1
NODES 1 2 int
2790 1289

POINTS 2790 double
0.0 1.0 0.0
1.725 1.0 0.0
8.275 1.0 0.0
20.0 1.0 0.0
20.0 0.0 0.0
0.0 0.0 0.0
0.1916666666663293 1.0 0.0
0.3833333333324708 1.0 0.0
0.574999999998553 1.0 0.0
0.7666666666645966 1.0 0.0
0.9583333333312576 1.0 0.0
1.149999999998384 1.0 0.0
1.341666666665662 1.0 0.0
1.533333333332819 1.0 0.0
0.0958333333331406 1.0 0.0
0.2874999999994247 1.0 0.0
0.4791666666655395 1.0 0.0
0.6708333333315728 1.0 0.0
0.8624999999976626 1.0 0.0
1.054166666664886 1.0 0.0
1.245833333332057 1.0 0.0
1.437499999999343 1.0 0.0
1.629166666666455 1.0 0.0
1.92348484848444 1.0 0.0
2.121969696968978 1.0 0.0
2.320454545453434 1.0 0.0
2.518939393937826 1.0 0.0
2.717424242422235 1.0 0.0
2.915909090906411 1.0 0.0
3.1143939393908 1.0 0.0
3.312878787875129 1.0 0.0
3.511363636359531 1.0 0.0
3.709848484843827 1.0 0.0
3.90833333332816 1.0 0.0
4.106818181812215 1.0 0.0
4.305303030296804 1.0 0.0
4.503787878781365 1.0 0.0
4.702272727265711 1.0 0.0
4.900757575750005 1.0 0.0
5.099242424235156 1.0 0.0
5.297727272720327 1.0 0.0
5.496212121205663 1.0 0.0
5.694696969690998 1.0 0.0
5.89318181817668 1.0 0.0
6.09166666666213 1.0 0.0
6.290151515147423 1.0 0.0
6.488636363633031 1.0 0.0
6.687121212118713 1.0 0.0
6.885606060604342 1.0 0.0
7.084090909089381 1.0 0.0
7.282575757574369 1.0 0.0
7.481060606059355 1.0 0.0
7.679545454544343 1.0 0.0
7.878030303029329 1.0 0.0
8.076515151514705 1.0 0.0
1.824242424242199 1.0 0.0
2.022727272726695 1.0 0.0
2.221212121211181 1.0 0.0
2.41969696969563 1.0 0.0
2.618181818180092 1.0 0.0
2.816666666664316 1.0 0.0
3.015151515148624 1.0 0.0
3.213636363633039 1.0 0.0
3.412121212117267 1.0 0.0
3.610606060601583 1.0 0.0
3.809090909085975 1.0 0.0
4.007575757570153 1.0 0.0
4.206060606054539 1.0 0.0
4.404545454539001 1.0 0.0
4.603030303023853 1.0 0.0
4.801515151507715 1.0 0.0
4.999999999992074 1.0 0.0
5.198484848477777 1.0 0.0
5.396969696963081 1.0 0.0
5.595454545448261 1.0 0.0
5.793939393933949 1.0 0.0
5.992424242419331 1.0 0.0
6.190909090904785 1.0 0.0
6.389393939390224 1.0 0.0
6.587878787875795 1.0 0.0
6.786363636361617 1.0 0.0
6.984848484846598 1.0 0.0
7.183333333331875 1.0 0.0
7.381818181816625 1.0 0.0
7.580303030301849 1.0 0.0
7.778787878786936 1.0 0.0
7.977272727272114 1.0 0.0
8.175757575757618 1.0 0.0
8.473728813558951 1.0 0.0
8.672457627118133 1.0 0.0
8.871186440676855 1.0 0.0
9.069915254236154 1.0 0.0
9.268644067794812 1.0 0.0
9.467372881354057 1.0 0.0
9.666101694912944 1.0 0.0
9.864830508471961 1.0 0.0
10.06355932203108 1.0 0.0
10.26228813558986 1.0 0.0
10.46101694914916 1.0 0.0
10.65974576270777 1.0 0.0
10.85847457626706 1.0 0.0
11.05720338982589 1.0 0.0
11.25593220338497 1.0 0.0
11.45466101694402 1.0 0.0
11.65338983050287 1.0 0.0
11.85211864406215 1.0 0.0
12.05084745762035 1.0 0.0
12.24957627117938 1.0 0.0
12.44830508473794 1.0 0.0
12.64703389829659 1.0 0.0
12.84576271185557 1.0 0.0
13.04449152541379 1.0 0.0
13.24322033897301 1.0 0.0
13.44194915253121 1.0 0.0
13.6406779660903 1.0 0.0
13.83940677964874 1.0 0.0
14.03813559320751 1.0 0.0
14.23686440676681 1.0 0.0
14.43559322032663 1.0 0.0
14.63432203388679 1.0 0.0
14.8330508474463 1.0 0.0
15.0317796610067 1.0 0.0
15.23050847456608 1.0 0.0
15.42923728812645 1.0 0.0
15.62796610168606 1.0 0.0
15.82669491524602 1.0 0.0
16.02542372880584 1.0 0.0
16.22415254236431 1.0 0.0
16.42288135592496 1.0 0.0
16.62161016948498 1.0 0.0
16.82033898304518 1.0 0.0
17.01906779660567 1.0 0.0
17.2177966101654 1.0 0.0
17.41652542372565 1.0 0.0
17.61525423728425 1.0 0.0
17.81398305084494 1.0 0.0
18.01271186440355 1.0 0.0
18.21144067796387 1.0 0.0
18.41016949152309 1.0 0.0
18.6088983050827 1.0 0.0
18.80762711864282 1.0 0.0
19.00635593220153 1.0 0.0
19.20508474576211 1.0 0.0
19.40381355932072 1.0 0.0
19.60254237288117 1.0 0.0
19.80127118644013 1.0 0.0
8.374364406779554 1.0 0.0
8.573093220338519 1.0 0.0
8.771822033897509 1.0 0.0
8.970550847456504 1.0 0.0
9.169279661015429 1.0 0.0
9.368008474574502 1.0 0.0
9.566737288133496 1.0 0.0
9.765466101692677 1.0 0.0
9.964194915251602 1.0 0.0
10.16292372881015 1.0 0.0
10.36165254236967 1.0 0.0
10.56038135592849 1.0 0.0
10.75911016948728 1.0 0.0
10.95783898304648 1.0 0.0
11.15656779660554 1.0 0.0
11.35529661016447 1.0 0.0
11.55402542372345 1.0 0.0
11.75275423728253 1.0 0.0
11.95148305084111 1.0 0.0
12.15021186439983 1.0 0.0
12.34894067795883 1.0 0.0
12.54766949151722 1.0 0.0
12.74639830507616 1.0 0.0
12.94512711863486 1.0 0.0
13.14385593219357 1.0 0.0
13.34258474575207 1.0 0.0
13.54131355931069 1.0 0.0
13.7400423728695 1.0 0.0
13.93877118642822 1.0 0.0
14.13749999998697 1.0 0.0
14.33622881354686 1.0 0.0
14.53495762710678 1.0 0.0
14.73368644066656 1.0 0.0
14.93241525422655 1.0 0.0
15.13114406778625 1.0 0.0
15.32987288134641 1.0 0.0
15.52860169490635 1.0 0.0
15.7273305084661 1.0 0.0
15.9260593220261 1.0 0.0
16.12478813558534 1.0 0.0
16.32351694914468 1.0 0.0
16.52224576270527 1.0 0.0
16.72097457626511 1.0 0.0
16.91970338982543 1.0 0.0
17.11843220338561 1.0 0.0
17.31716101694539 1.0 0.0
17.51588983050497 1.0 0.0
17.71461864406449 1.0 0.0
17.91334745762401 1.0 0.0
18.11207627118383 1.0 0.0
18.31080508474307 1.0 0.0
18.50953389830311 1.0 0.0
18.70826271186271 1.0 0.0
18.90699152542239 1.0 0.0
19.10572033898203 1.0 0.0
19.30444915254171 1.0 0.0
19.50317796610107 1.0 0.0
19.70190677966065 1.0 0.0
19.90063559322003 1.0 0.0
20.0 0.7999999999999998 0.0
20.0 0.6000000000013869 0.0
20.0 0.4000000000016644 0.0
20.0 0.2000000000008322 0.0
20.0 0.9000000000000369 0.0
20.0 0.7000000000005904 0.0
20.0 0.5000000000017577 0.0
20.0 0.3000000000012483 0.0
20.0 0.1000000000004161 0.0
19.8 0.0 0.0
19.6 0.0 0.0
19.4 0.0 0.0
19.2 0.0 0.0
19.0 0.0 0.0
18.8 0.0 0.0
18.6 0.0 0.0
18.4 0.0 0.0
18.2 0.0 0.0
18.0 0.0 0.0
17.8 0.0 0.0
17.59999999999999 0.0 0.0
17.4 0.0 0.0
17.2 0.0 0.0
16.99999999999999 0.0 0.0
16.79999999999999 0.0 0.0
16.59999999999999 0.0 0.0
16.4 0.0 0.0
16.2 0.0 0.0
15.99999999999999 0.0 0.0
15.79999999999999 0.0 0.0
15.59999999999999 0.0 0.0
15.4 0.0 0.0
15.2 0.0 0.0
15.0 0.0 0.0
14.79999999999999 0.0 0.0
14.59999999999999 0.0 0.0
14.4 0.0 0.0
14.2 0.0 0.0
13.99999999999999 0.0 0.0
13.8 0.0 0.0
13.59999999999999 0.0 0.0
13.4 0.0 0.0
13.2 0.0 0.0
13.0 0.0 0.0
12.79999999999999 0.0 0.0
12.6 0.0 0.0
12.4 0.0 0.0
12.2 0.0 0.0
11.99999999999999 0.0 0.0
11.8 0.0 0.0
11.6 0.0 0.0
11.4 0.0 0.0
11.2 0.0 0.0
11.0 0.0 0.0
10.8 0.0 0.0
10.6 0.0 0.0
10.4 0.0 0.0
10.2 0.0 0.0
9.999999999999998 0.0 0.0
9.799999999999995 0.0 0.0
9.599999999999998 0.0 0.0
9.399999999999997 0.0 0.0
9.199999999999998 0.0 0.0
8.999999999999996 0.0 0.0
8.799999999999997 0.0 0.0
8.599999999999996 0.0 0.0
8.399999999999999 0.0 0.0
8.199999999999996 0.0 0.0
7.999999999999998 0.0 0.0
7.799999999999997 0.0 0.0
7.599999999999998 0.0 0.0
7.399999999999999 0.0 0.0
7.199999999999998 0.0 0.0
6.999999999999995 0.0 0.0
6.799999999999995 0.0 0.0
6.599999999999998 0.0 0.0
6.399999999999997 0.0 0.0
6.199999999999996 0.0 0.0
5.999999999999998 0.0 0.0
5.799999999999999 0.0 0.0
5.599999999999996 0.0 0.0
5.399999999999995 0.0 0.0
5.199999999999996 0.0 0.0
4.999999999999998 0.0 0.0
4.799999999999997 0.0 0.0
4.599999999999998 0.0 0.0
4.399999999999999 0.0 0.0
4.199999999999999 0.0 0.0
3.999999999999996 0.0 0.0
3.799999999999997 0.0 0.0
3.599999999999998 0.0 0.0
3.399999999999999 0.0 0.0
3.199999999999999 0.0 0.0
3.0 0.0 0.0
2.800000000000001 0.0 0.0
2.599999999999998 0.0 0.0
2.399999999999999 0.0 0.0
2.199999999999996 0.0 0.0
1.999999999999996 0.0 0.0
1.800000000000001 0.0 0.0
1.599999999999998 0.0 0.0
1.399999999999999 0.0 0.0
1.200000000000003 0.0 0.0
1.0 0.0 0.0
0.7999999999999972 0.0 0.0
0.5999999999999979 0.0 0.0
0.3999999999999986 0.0 0.0
0.1999999999999993 0.0 0.0
19.90000000000022 0.0 0.0
19.69999999999997 0.0 0.0
19.49999999999987 0.0 0.0
19.30000000000005 0.0 0.0
19.09999999999999 0.0 0.0
18.89999999999987 0.0 0.0
18.7 0.0 0.0
18.49999999999999 0.0 0.0
18.30000000000001 0.0 0.0
18.09999999999987 0.0 0.0
17.90000000000013 0.0 0.0
17.7 0.0 0.0
17.49999999999987 0.0 0.0
17.30000000000025 0.0 0.0
17.10000000000001 0.0 0.0
16.90000000000005 0.0 0.0
16.70000000000003 0.0 0.0
16.50000000000006 0.0 0.0
16.29999999999997 0.0 0.0
16.09999999999999 0.0 0.0
15.89999999999987 0.0 0.0
15.69999999999999 0.0 0.0
15.49999999999999 0.0 0.0
15.3 0.0 0.0
15.10000000000003 0.0 0.0
14.90000000000005 0.0 0.0
14.69999999999992 0.0 0.0
14.49999999999996 0.0 0.0
14.29999999999999 0.0 0.0
14.10000000000008 0.0 0.0
13.89999999999988 0.0 0.0
13.70000000000003 0.0 0.0
13.50000000000004 0.0 0.0
13.29999999999992 0.0 0.0
13.09999999999995 0.0 0.0
12.90000000000016 0.0 0.0
12.7 0.0 0.0
12.49999999999986 0.0 0.0
12.30000000000003 0.0 0.0
12.10000000000016 0.0 0.0
11.90000000000005 0.0 0.0
11.69999999999994 0.0 0.0
11.49999999999993 0.0 0.0
11.30000000000005 0.0 0.0
11.0999999999999 0.0 0.0
10.90000000000004 0.0 0.0
10.69999999999995 0.0 0.0
10.50000000000012 0.0 0.0
10.29999999999999 0.0 0.0
10.09999999999993 0.0 0.0
9.900000000000077 0.0 0.0
9.699999999999969 0.0 0.0
9.499999999999982 0.0 0.0
9.299999999999969 0.0 0.0
9.100000000000108 0.0 0.0
8.899999999999972 0.0 0.0
8.699999999999958 0.0 0.0
8.499999999999998 0.0 0.0
8.30000000000003 0.0 0.0
8.099999999999977 0.0 0.0
7.899999999999974 0.0 0.0
7.700000000000166 0.0 0.0
7.499999999999854 0.0 0.0
7.299999999999997 0.0 0.0
7.100000000000019 0.0 0.0
6.900000000000002 0.0 0.0
6.699999999999974 0.0 0.0
6.500000000000037 0.0 0.0
6.299999999999981 0.0 0.0
6.100000000000014 0.0 0.0
5.899999999999949 0.0 0.0
5.700000000000049 0.0 0.0
5.499999999999956 0.0 0.0
5.300000000000118 0.0 0.0
5.100000000000005 0.0 0.0
4.900000000000109 0.0 0.0
4.699999999999982 0.0 0.0
4.499999999999936 0.0 0.0
4.300000000000137 0.0 0.0
4.100000000000012 0.0 0.0
3.899999999999888 0.0 0.0
3.69999999999974 0.0 0.0
3.500000000000046 0.0 0.0
3.299999999999965 0.0 0.0
3.099999999999817 0.0 0.0
2.900000000000066 0.0 0.0
2.699999999999793 0.0 0.0
2.500000000000064 0.0 0.0
2.299999999999823 0.0 0.0
[...]
POINT_DATA 2790
VECTORS vector double
1.0 0.0 0.0
0.0 0.0 0.0
0.0 0.0 0.0
0.0 0.0 0.0
1.6017052651 0.0 0.0
1.0 0.0 0.0
0.0 0.0 0.0
0.0 0.0 0.0
0.0 0.0 0.0
0.0 0.0 0.0
0.0 0.0 0.0
0.0 0.0 0.0
0.0 0.0 0.0
0.0 0.0 0.0
0.0 0.0 0.0
0.0 0.0 0.0
0.0 0.0 0.0
0.0 0.0 0.0
0.0 0.0 0.0
0.0 0.0 0.0
0.0 0.0 0.0
0.0 0.0 0.0
0.0 0.0 0.0
0.0 0.0 0.0
0.0 0.0 0.0
0.0 0.0 0.0
0.0 0.0 0.0
0.0 0.0 0.0
0.0 0.0 0.0
0.0 0.0 0.0
0.0 0.0 0.0
0.0 0.0 0.0
0.0 0.0 0.0
0.0 0.0 0.0
0.0 0.0 0.0
0.0 0.0 0.0
0.0 0.0 0.0
0.0 0.0 0.0
0.0 0.0 0.0
0.0 0.0 0.0
0.0 0.0 0.0
0.0 0.0 0.0
0.0 0.0 0.0
0.0 0.0 0.0
0.0 0.0 0.0
0.0 0.0 0.0
0.0 0.0 0.0
0.0 0.0 0.0
0.0 0.0 0.0
0.0 0.0 0.0
0.0 0.0 0.0
0.0 0.0 0.0
0.0 0.0 0.0
0.0 0.0 0.0
0.0 0.0 0.0
0.0 0.0 0.0
0.0 0.0 0.0
0.0 0.0 0.0
0.0 0.0 0.0
0.0 0.0 0.0
0.0 0.0 0.0
0.0 0.0 0.0
0.0 0.0 0.0
0.0 0.0 0.0
0.0 0.0 0.0
0.0 0.0 0.0
0.0 0.0 0.0
0.0 0.0 0.0
0.0 0.0 0.0
0.0 0.0 0.0
0.0 0.0 0.0
0.0 0.0 0.0
0.0 0.0 0.0
0.0 0.0 0.0
0.0 0.0 0.0
0.0 0.0 0.0
0.0 0.0 0.0
0.0 0.0 0.0
0.0 0.0 0.0
0.0 0.0 0.0
0.0 0.0 0.0
0.0 0.0 0.0
0.0 0.0 0.0
0.0 0.0 0.0
0.0 0.0 0.0
0.0 0.0 0.0
0.0 0.0 0.0
0.0 0.0 0.0
0.0 0.0 0.0
0.0 0.0 0.0
0.0 0.0 0.0
0.0 0.0 0.0
0.0 0.0 0.0
0.0 0.0 0.0
0.0 0.0 0.0
0.0 0.0 0.0
0.0 0.0 0.0
0.0 0.0 0.0
0.0 0.0 0.0
0.0 0.0 0.0
0.0 0.0 0.0
0.0 0.0 0.0
0.0 0.0 0.0
0.0 0.0 0.0
0.0 0.0 0.0
0.0 0.0 0.0
0.0 0.0 0.0
0.0 0.0 0.0
0.0 0.0 0.0
0.0 0.0 0.0
0.0 0.0 0.0
0.0 0.0 0.0
0.0 0.0 0.0
0.0 0.0 0.0
0.0 0.0 0.0
0.0 0.0 0.0
0.0 0.0 0.0
0.0 0.0 0.0
0.0 0.0 0.0
0.0 0.0 0.0
0.0 0.0 0.0
0.0 0.0 0.0
0.0 0.0 0.0
0.0 0.0 0.0
0.0 0.0 0.0
0.0 0.0 0.0
0.0 0.0 0.0
0.0 0.0 0.0
0.0 0.0 0.0
0.0 0.0 0.0
0.0 0.0 0.0
0.0 0.0 0.0
0.0 0.0 0.0
0.0 0.0 0.0
0.0 0.0 0.0
0.0 0.0 0.0
0.0 0.0 0.0
0.0 0.0 0.0
0.0 0.0 0.0
0.0 0.0 0.0
0.0 0.0 0.0
0.0 0.0 0.0
0.0 0.0 0.0
0.0 0.0 0.0
0.0 0.0 0.0
0.0 0.0 0.0
0.0 0.0 0.0
0.0 0.0 0.0
0.0 0.0 0.0
0.0 0.0 0.0
0.0 0.0 0.0
0.0 0.0 0.0
0.0 0.0 0.0
0.0 0.0 0.0
0.0 0.0 0.0
0.0 0.0 0.0
0.0 0.0 0.0
0.0 0.0 0.0
0.0 0.0 0.0
0.0 0.0 0.0
0.0 0.0 0.0
0.0 0.0 0.0
0.0 0.0 0.0
0.0 0.0 0.0
0.0 0.0 0.0
0.0 0.0 0.0
0.0 0.0 0.0
0.0 0.0 0.0
0.0 0.0 0.0
0.0 0.0 0.0
0.0 0.0 0.0
0.0 0.0 0.0
0.0 0.0 0.0
0.0 0.0 0.0
0.0 0.0 0.0
0.0 0.0 0.0
0.0 0.0 0.0
0.0 0.0 0.0
0.0 0.0 0.0
0.0 0.0 0.0
0.0 0.0 0.0
0.0 0.0 0.0
0.0 0.0 0.0
0.0 0.0 0.0
0.0 0.0 0.0
0.0 0.0 0.0
0.0 0.0 0.0
0.0 0.0 0.0
0.0 0.0 0.0
0.0 0.0 0.0
0.0 0.0 0.0
0.0 0.0 0.0
0.0 0.0 0.0
0.0 0.0 0.0
0.0 0.0 0.0
0.0 0.0 0.0
0.0 0.0 0.0
0.0 0.0 0.0
0.0 0.0 0.0
0.0 0.0 0.0
0.0 0.0 0.0
0.0 0.0 0.0
0.0 0.0 0.0
0.0 0.0 0.0
0.0 0.0 0.0
0.537357189386 -6.87707217124e-06 0.0
0.951962382543 0.000163744535357 0.0
1.24904012125 1.7823570812e-05 0.0
1.45139221261 -0.000270746471772 0.0
0.274084170151 0.000338110715974 0.0
0.74893193348 0.00127086248505 0.0
1.10468745798 0.000295716890716 0.0
1.35237883193 -0.000470808671603 0.0
1.52540345775 -0.000191091361816 0.0
1.60076071332 0.0 0.0
1.6000852495 0.0 0.0
1.59915729275 0.0 0.0
1.59798916871 0.0 0.0
1.59590805107 0.0 0.0
1.59517294311 0.0 0.0
1.59361866298 0.0 0.0
1.59130135277 0.0 0.0
1.58999980599 0.0 0.0
1.58820305914 0.0 0.0
1.58569715604 0.0 0.0
1.58427715215 0.0 0.0
1.58224807873 0.0 0.0
1.57943226126 0.0 0.0
1.57633539516 0.0 0.0
1.57396066982 0.0 0.0
1.57241744477 0.0 0.0
1.56915231514 0.0 0.0
1.56650715818 0.0 0.0
1.5647596844 0.0 0.0
1.56121979482 0.0 0.0
1.55832429845 0.0 0.0
1.55633816093 0.0 0.0
1.55251683672 0.0 0.0
1.5493355923 0.0 0.0
1.54709887918 0.0 0.0
1.54298744406 0.0 0.0
1.53952312 0.0 0.0
1.53703919165 0.0 0.0
1.53264232644 0.0 0.0
1.52890771566 0.0 0.0
1.52619099312 0.0 0.0
1.52152288176 0.0 0.0
1.51753694121 0.0 0.0
1.51459736323 0.0 0.0
1.50965622542 0.0 0.0
1.50545179196 0.0 0.0
1.50234724398 0.0 0.0
1.49692856906 0.0 0.0
1.49229469174 0.0 0.0
1.48905138248 0.0 0.0
1.48376276558 0.0 0.0
1.47901418886 0.0 0.0
1.47562573065 0.0 0.0
1.47013589792 0.0 0.0
1.46520879254 0.0 0.0
1.46171123126 0.0 0.0
1.45599505608 0.0 0.0
1.45085185776 0.0 0.0
1.44718434006 0.0 0.0
1.44136206122 0.0 0.0
1.43596469774 0.0 0.0
1.43182758154 0.0 0.0
1.42868716843 0.0 0.0
1.42213958698 0.0 0.0
1.41552197688 0.0 0.0
1.40991656109 0.0 0.0
1.40508314998 0.0 0.0
1.39878638641 0.0 0.0
1.3930303504 0.0 0.0
1.38863190859 0.0 0.0
1.38206880064 0.0 0.0
1.37596246843 0.0 0.0
1.37125652768 0.0 0.0
1.36433616087 0.0 0.0
1.35797614796 0.0 0.0
1.35301644217 0.0 0.0
1.34586252713 0.0 0.0
1.33908318545 0.0 0.0
1.33350293793 0.0 0.0
1.32837138461 0.0 0.0
1.31999427154 0.0 0.0
1.31319762441 0.0 0.0
1.3054907679 0.0 0.0
1.29696359965 0.0 0.0
1.28987843059 0.0 0.0
1.28077229721 0.0 0.0
1.27198484273 0.0 0.0
1.26393866275 0.0 0.0
1.25602027542 0.0 0.0
1.24686057463 0.0 0.0
1.23803640957 0.0 0.0
1.22926962999 0.0 0.0
1.21961594694 0.0 0.0
1.20997091254 0.0 0.0
1.20009172018 0.0 0.0
1.1896862041 0.0 0.0
1.17893785342 0.0 0.0
1.16776439506 0.0 0.0
1.15617535065 0.0 0.0
1.14372057341 0.0 0.0
1.13038966579 0.0 0.0
1.11633542194 0.0 0.0
1.10039282081 0.0 0.0
1.08254911783 0.0 0.0
1.06309804049 0.0 0.0
1.04116273901 0.0 0.0
1.02024784927 0.0 0.0
1.00349986577 0.0 0.0
1.60059632314 0.0 0.0
1.59956070344 0.0 0.0
1.59977061127 0.0 0.0
1.59737936811 0.0 0.0
1.59584658588 0.0 0.0
1.59480895607 0.0 0.0
1.59464207035 0.0 0.0
1.59155348432 0.0 0.0
1.58971930544 0.0 0.0
1.58930501974 0.0 0.0
1.58600032383 0.0 0.0
1.5840228715 0.0 0.0
1.58347616944 0.0 0.0
1.57991025066 0.0 0.0
1.57757369836 0.0 0.0
1.57426081899 0.0 0.0
1.57304290296 0.0 0.0
1.57050996623 0.0 0.0
1.56687826575 0.0 0.0
1.56546312727 0.0 0.0
1.56268682962 0.0 0.0
1.55880397863 0.0 0.0
1.55715624158 0.0 0.0
1.55410753455 0.0 0.0
1.54992757908 0.0 0.0
1.54803749393 0.0 0.0
1.54470665612 0.0 0.0
1.54022582397 0.0 0.0
1.53809715929 0.0 0.0
1.53448949382 0.0 0.0
1.52971640144 0.0 0.0
1.52736276854 0.0 0.0
1.52349450219 0.0 0.0
1.518443567 0.0 0.0
1.51587934871 0.0 0.0
1.51177379754 0.0 0.0
1.50649121138 0.0 0.0
1.50368421946 0.0 0.0
1.49928329184 0.0 0.0
1.49356827406 0.0 0.0
1.49017710111 0.0 0.0
1.48621604818 0.0 0.0
1.48036100743 0.0 0.0
1.47682958097 0.0 0.0
1.47270469526 0.0 0.0
1.46663233978 0.0 0.0
1.46295730978 0.0 0.0
1.45866640913 0.0 0.0
1.45239040634 0.0 0.0
1.44846843629 0.0 0.0
1.44410925755 0.0 0.0
1.43769209916 0.0 0.0
1.4333794048 0.0 0.0
1.42886798387 0.0 0.0
1.4244126845 0.0 0.0
1.4183912901 0.0 0.0
1.41165211811 0.0 0.0
1.40703934755 0.0 0.0
1.40178779446 0.0 0.0
1.39501963108 0.0 0.0
1.39034610962 0.0 0.0
1.38526162981 0.0 0.0
1.3780302399 0.0 0.0
1.37313888853 0.0 0.0
1.36769269239 0.0 0.0
1.36018948874 0.0 0.0
1.35503701729 0.0 0.0
1.34932762117 0.0 0.0
1.3416353314 0.0 0.0
1.335961359 0.0 0.0
1.32975391207 0.0 0.0
1.32325496389 0.0 0.0
1.31595188681 0.0 0.0
1.3086976585 0.0 0.0
1.30065668644 0.0 0.0
1.29281084803 0.0 0.0
1.28410881955 0.0 0.0
1.27600729981 0.0 0.0
1.26749704862 0.0 0.0
1.25986756002 0.0 0.0
1.25102390219 0.0 0.0
1.24205184883 0.0 0.0
1.23352781546 0.0 0.0
1.22413704023 0.0 0.0
1.21457541043 0.0 0.0
1.20489871152 0.0 0.0
1.19472820817 0.0 0.0
1.1842911431 0.0 0.0
1.17324208838 0.0 0.0
1.1619860458 0.0 0.0
1.15010701736 0.0 0.0
1.13700478013 0.0 0.0
1.12356553864 0.0 0.0
1.10871075041 0.0 0.0
1.09148315533 0.0 0.0
1.07301225249 0.0 0.0
1.05247860164 0.0 0.0
1.03061008368 0.0 0.0
1.01123789628 0.0 0.0
0.99861820959 0.0 0.0
1.0 0.0 0.0
1.0 0.0 0.0
1.0 0.0 0.0
1.0 0.0 0.0
1.0 0.0 0.0
1.0 0.0 0.0
1.0 0.0 0.0
1.0 0.0 0.0
1.0 0.0 0.0
1.1674648114 -0.0716225979854 0.0
1.22430718252 -0.0464699468975 0.0
1.22778561631 -0.031196796024 0.0
1.07852700933 -0.000488526938937 0.0
1.11709149005 -0.000956953176029 0.0
1.11744205531 -0.00122189211247 0.0
1.11615074886 -0.0013381791029 0.0
1.11595214358 -0.00150353231122 0.0
1.11785516486 -0.00167564743857 0.0
1.1197480442 -0.00182935844949 0.0
1.12190714545 -0.00202364974114 0.0
1.12435027242 -0.002230995174 0.0
1.12707875819 -0.00245246243954 0.0
1.13007335523 -0.00267911422455 0.0
1.13332610674 -0.00287906016201 0.0
1.08867123166 -0.0027946048297 0.0
1.09285550662 -0.00291122614678 0.0
1.09732350553 -0.00308049255959 0.0
1.10199078043 -0.00327317720975 0.0
1.15843335429 -0.00454934415953 0.0
1.22026134247 -0.023037500995 0.0
1.12919734707 -0.00452775107686 0.0
1.10696035545 -0.00342019793712 0.0
1.20695338147 -0.0176550854942 0.0
1.13655561055 -0.00507781629038 0.0
1.14904152478 -0.00402552133057 0.0
1.19349486067 -0.0139833800497 0.0
1.14492247903 -0.00555025592166 0.0
1.18094733145 -0.0114006074169 0.0
1.18272769014 -0.00683433464983 0.0
1.19375237174 -0.0106595548611 0.0
1.15561336238 -0.00448385407886 0.0
1.17066371036 -0.00988861398262 0.0
0.87162091014 -0.000811612419488 0.0
1.2081698316 -0.142625535276 0.0
1.2932888656 -0.010774182559 0.0
1.28140551442 -0.0126495955687 0.0
1.31167434356 -0.00734103966581 0.0
1.26702353486 -0.0148865998271 0.0
1.31253846785 -0.00653581456379 0.0
1.21759845685 -0.021186268982 0.0
1.24666365318 -0.0177136830217 0.0
1.31484578573 -0.00601713757043 0.0
1.31648114486 -0.00546123135029 0.0
1.31961354983 -0.00479641068399 0.0
1.32054092422 -0.004446096393 0.0
1.32119469016 -0.0042635962784 0.0
1.32180123281 -0.00403575524323 0.0
1.32226297663 -0.00383046348533 0.0
1.31341532766 -0.00367608894308 0.0
1.31347514637 -0.00338553920615 0.0
1.31356444613 -0.00312961819166 0.0
1.2065935233 -0.0513268116227 0.0
1.31347674717 -0.00287630323583 0.0
1.3133689147 -0.00262350642992 0.0
1.3132683625 -0.00238338636474 0.0
1.1767492811 -0.0257706680044 0.0
1.31319742978 -0.00216543049996 0.0
1.13707076032 -0.028336334911 0.0
1.1290401611 -0.0336093121221 0.0
1.31131651848 -0.00192689757733 0.0
1.31133695221 -0.00184088184025 0.0
0.829625285403 -0.000504258521563 0.0
1.31106114714 -0.00151942214506 0.0
0.830735134014 -0.000887135881122 0.0
0.97211721113 -0.00715399235198 0.0
0.991878799076 -0.00852681771949 0.0
0.931499983038 -0.00322724850235 0.0
1.08525750179 -0.0193520499384 0.0
1.01576651857 -0.0108898888528 0.0
0.91927215518 -0.00350133510805 0.0
1.04599545252 -0.0144507857178 0.0
0.909033233531 -0.00322322189494 0.0
0.899687238753 -0.00269923927966 0.0
0.891663695473 -0.00223341456308 0.0
0.885059835585 -0.00243523449926 0.0
0.878769314434 -0.00227993095419 0.0
0.872796339834 -0.00213235144545 0.0
0.86716092469 -0.00200799882121 0.0
0.861972935058 -0.00181260137901 0.0
0.857078191341 -0.00171841611273 0.0
0.85264337347 -0.00156921171509 0.0
0.84856883096 -0.0014308730151 0.0
0.844876768152 -0.0013020165518 0.0
0.84154784693 -0.00118562728797 0.0
1.31535385321 -0.00140991524008 0.0
0.838552194079 -0.00108746042506 0.0
0.835829200339 -0.000988181087593 0.0
0.833458144633 -0.000851376220121 0.0
0.831379229576 -0.000731734592759 0.0
1.33287876132 -0.000956026254223 0.0
1.03616307309 -0.0364350689351 0.0
1.33825047995 -7.83937928729e-05 0.0
1.31932952842 -0.00510365973409 0.0
1.31313926546 -0.00838710906893 0.0
1.30448614414 -0.00974046823669 0.0
1.33040689566 -0.0053894055331 0.0
0.836775190164 -0.00346392517343 0.0
0.876508901185 -0.00228298047337 0.0
0.893129365741 -0.00345621762379 0.0
0.902643080238 -0.00783900089686 0.0
1.17463567551 -0.0756883566541 0.0
1.03463380982 -0.0276209519494 0.0
1.34040645459 -0.00095014882449 0.0
1.38634834349 -0.00337268068572 0.0
1.38269672729 -0.00358938905733 0.0
1.13826781873 -0.021116626519 0.0
1.37652427511 -0.00342768138443 0.0
1.07526723947 -0.028476714385 0.0
1.37866660448 -0.003760678205 0.0
1.37890234589 -0.00318929852978 0.0
1.38097331374 -0.00294322659713 0.0
1.36973645188 -0.00403925479947 0.0
0.946968207048 -0.0154837038875 0.0
1.38284158484 -0.00269650027703 0.0
1.3657190569 -0.00428815135044 0.0
1.38453017408 -0.0024544690771 0.0
1.38607109543 -0.00222183982307 0.0
1.18433929897 -0.0169935024363 0.0
1.38750102222 -0.00199967337164 0.0
1.37846019165 -0.00181725225404 0.0
1.42882866906 -0.00156838378013 0.0
0.606917791067 -4.19475342775e-05 0.0
1.35480128502 -0.00478882428511 0.0
1.42674389446 -0.00147014806457 0.0
0.622927338062 -0.000121897052786 0.0
0.583685664849 5.75613597354e-05 0.0
1.42789156043 -0.00126361838878 0.0
0.608706732076 -0.000119100165824 0.0
1.35036984748 -0.00513538803148 0.0
1.2206834081 -0.014520571908 0.0
0.610375263573 -0.000165201951669 0.0
0.612450036001 -0.000186761185469 0.0
0.614773919091 -0.000219896474482 0.0
0.61736358456 -0.000268231469198 0.0
1.34369713964 -0.0055547611773 0.0
1.25041460459 -0.0125965287374 0.0
0.620260267253 -0.000317969753986 0.0
0.623497660754 -0.000375321065089 0.0
0.627100560958 -0.000447164241399 0.0
0.630975923653 -0.000494129331453 0.0
0.635923005462 -0.000666990599174 0.0
1.33528669348 -0.00609511679929 0.0
1.27392937296 -0.0109578934927 0.0
0.64055984451 -0.000694505249871 0.0
0.645559375576 -0.000727450839584 0.0
0.516507312226 -0.000500393128491 0.0
0.650891307013 -0.000813216244461 0.0
0.837058537648 -0.00834050746829 0.0
0.675545309063 -0.000943842505739 0.0
0.798519799271 -0.00587910869631 0.0
0.68373055187 -0.00115286096908 0.0
0.656255797052 -0.000794941195478 0.0
0.769998084795 -0.00440092265528 0.0
0.692317941511 -0.000985909912611 0.0
0.747828168846 -0.00338387621939 0.0
0.539761678268 0.000239120145112 0.0
0.625557692375 -0.00236505723503 0.0
0.55926075285 -0.000273178866836 0.0
1.32407255965 -0.00617066083669 0.0
1.29295680331 -0.00965496347612 0.0
1.30603966128 -0.00888223661242 0.0
1.33002267997 -0.00690255874293 0.0
1.35885169864 -0.00464144556753 0.0
1.36698882218 -0.00445746857054 0.0
0.644345284838 -0.00277922271287 0.0
0.856966264292 -0.00769840967179 0.0
1.43158447914 -0.000943127930338 0.0
1.04290092104 -0.0597684417588 0.0
1.11152738389 -0.000115959503362 0.0
1.18037144473 -0.000661243467254 0.0
1.0427462732 -0.0185353880449 0.0
0.504949932023 -4.27282126505e-06 0.0
1.1068619186 -0.0708327355176 0.0
1.01950406113 -0.0551134826785 0.0
0.552760502262 -0.00125502180269 0.0
1.42980502594 -0.0029143140113 0.0
1.42455262125 -0.0031232712495 0.0
1.43391235895 -0.00262817250186 0.0
1.41812106051 -0.00327166614344 0.0
1.27666512282 -0.296476083833 0.0
1.41082280932 -0.00348711993254 0.0
1.43903843021 -0.00243966941685 0.0
1.40369160335 -0.00360136421888 0.0
1.44371656098 -0.00225491234474 0.0
1.44799641486 -0.00206505505631 0.0
1.19614572405 -0.0100819345675 0.0
1.37313555042 -0.00428324101143 0.0
1.10861902848 -0.0153852212489 0.0
1.36301861474 -0.00459230541595 0.0
1.23006807014 -0.00893790477741 0.0
1.45188073584 -0.00187646121721 0.0
1.3517545882 -0.0049075589358 0.0
1.2588507554 -0.00790500110546 0.0
1.15646864233 -0.0117939844388 0.0
1.28328799934 -0.00703497189869 0.0
1.45540017644 -0.00169714977834 0.0
1.45735992537 -0.00152788040946 0.0
1.45912487252 -0.00140624323526 0.0
1.45849105742 -0.000956372456085 0.0
1.46238124862 -0.000918990706046 0.0
1.46562794519 -0.000835995249179 0.0
1.16001277184 -0.0044108461023 0.0
0.749234128037 -0.00957102160941 0.0
0.802623749611 -0.0156324463522 0.0
0.860468064195 -0.0222592168363 0.0
0.718777382391 -0.00851327931314 0.0
0.477865003327 -0.000559058117786 0.0
0.479426803247 -0.000564911693133 0.0
0.481312473428 -0.000598634219278 0.0
1.20589853287 -0.00841731048601 0.0
0.483411334579 -0.000644099588771 0.0
0.485711946936 -0.000685103538864 0.0
0.488265400888 -0.000728538498427 0.0
1.11834962059 -0.000972656557503 0.0
1.21034766228 -0.0108239221151 0.0
0.491096145617 -0.000776194828768 0.0
1.11709929522 -0.000652173272793 0.0
0.49423409005 -0.000827688375809 0.0
0.497699460508 -0.000902387977013 0.0
0.501300713753 -0.000544730484775 0.0
0.505306125061 -0.000595535515047 0.0
1.10682040255 -0.00121222897409 0.0
0.509642738863 -0.000615765731872 0.0
1.10843630195 -0.000993855622496 0.0
0.483121988962 -0.000292760421437 0.0
0.514265654836 -0.000661932366382 0.0
1.11005667019 -0.00122327671154 0.0
0.48483228252 -0.00046940451124 0.0
1.11232714773 -0.00137456615649 0.0
0.482983015719 -0.000851413372504 0.0
0.519156882736 -0.000784570788916 0.0
1.1143904267 -0.00154251889497 0.0
0.483124819675 -0.000693342981863 0.0
0.509865466607 -0.000367143040989 0.0
1.11671160598 -0.0017303598172 0.0
0.69026659443 -0.00782975259804 0.0
1.11930021366 -0.00193322174347 0.0
1.12217987577 -0.0021409950851 0.0
0.537679994578 -0.00062844744898 0.0
1.12522040873 -0.00235226085205 0.0
1.12583178669 -0.00266324931334 0.0
1.22878061052 -0.0262491018629 0.0
0.65388201066 -0.00526330388832 0.0
0.544594624244 -0.00108285518154 0.0
1.12732825034 -0.00267388591082 0.0
1.13128655913 -0.00283918737233 0.0
0.627721811134 -0.00406291762345 0.0
0.552053910563 -0.00116308239271 0.0
1.13545596761 -0.00301823035201 0.0
0.607870302149 -0.00324477157663 0.0
0.535259826174 -0.000660927810853 0.0
1.13984739438 -0.00316454214701 0.0
1.14225089398 -0.00332251894541 0.0
0.578279391342 -0.00231097290979 0.0
1.15359369318 -0.00486661633117 0.0
1.16008234138 -0.0042177866513 0.0
1.16651715393 -0.00467821596331 0.0
1.22375883353 -0.0205030179855 0.0
1.17357378355 -0.00512280525579 0.0
1.21579982081 -0.0163896074709 0.0
1.17823059365 -0.0057564867844 0.0
1.20720610943 -0.0134792387403 0.0
1.19588712772 -0.011385283052 0.0
1.22238347653 -0.0376432667827 0.0
1.20106719986 -0.0487214996932 0.0
1.1855686651 -0.0552240515176 0.0
1.1937705373 -0.00986255794312 0.0
1.22550374008 -0.0342360192389 0.0
1.22684731456 -0.0267939211991 0.0
1.20290773673 -0.012100476898 0.0
1.16990646071 -0.0070990874439 0.0
1.2127698382 -0.015272258995 0.0
1.16168523802 -0.00649109087654 0.0
1.22177789192 -0.0197902624958 0.0
1.15498981882 -0.00593662103014 0.0
0.603168432607 -0.00213891468796 0.0
1.15506156414 -0.00503789980459 0.0
0.622827947906 -0.00300699911543 0.0
0.561476336499 -0.00139649264544 0.0
0.693386944582 -0.00710621877542 0.0
1.13595660094 -0.00462267946232 0.0
0.644933015292 -0.00389189880697 0.0
0.558408394699 -0.0016642181211 0.0
1.1317725559 -0.00446745196399 0.0
1.12749721552 -0.00423820920343 0.0
0.674466909089 -0.00521423513822 0.0
0.551195236174 -0.00153802606049 0.0
1.12344112016 -0.00401694020131 0.0
1.45798669271 -0.00152876618013 0.0
1.11956870815 -0.00380797193409 0.0
1.12926049294 -0.00334658818794 0.0
0.521822830389 -0.00024692149651 0.0
1.126598512 -0.00311584882243 0.0
1.1237315785 -0.00288101330224 0.0
1.12106183277 -0.00265955461047 0.0
1.1186664227 -0.00244872946014 0.0
1.11654156605 -0.00225513489181 0.0
1.11467488906 -0.00209103527706 0.0
1.11246913115 -0.00199987981136 0.0
1.1098519165 -0.00118910864762 0.0
1.11130525609 -0.00142497497956 0.0
1.11035702852 -0.00144868546273 0.0
1.10440080948 -0.00108440971734 0.0
1.38239409233 -0.00400527774719 0.0
1.45918521409 -0.00165114826699 0.0
0.530722949379 -0.00132061419202 0.0
0.521160968927 -0.00134510625531 0.0
0.51630802931 -0.00124452325176 0.0
0.511777493842 -0.00117163912489 0.0
0.507522608794 -0.00111784260898 0.0
1.45720173004 -0.00163603703137 0.0
0.503723900513 -0.000746603875431 0.0
0.500123618452 -0.000789838018282 0.0
0.49675325986 -0.000712031428789 0.0
0.493715822377 -0.000660202191565 0.0
0.490979755553 -0.000614087607367 0.0
0.488514126929 -0.000572604250451 0.0
1.45556534286 -0.00183772783875 0.0
0.486290406983 -0.000547704938849 0.0
0.48427699425 -0.000517851776885 0.0
0.482526236901 -0.000480350308677 0.0
0.484247872191 -0.000154127541437 0.0
1.45212385667 -0.00201222927284 0.0
1.44835054256 -0.0022020041244 0.0
1.31146105407 -0.00710419194678 0.0
1.44421055085 -0.00239555484037 0.0
1.33268270201 -0.00511343484553 0.0
0.874222983996 -0.000379517650208 0.0
1.4396784054 -0.0025847341492 0.0
1.00676901223 -0.013681220486 0.0
1.08502213188 -0.0180998147675 0.0
1.45999554002 -0.00139375423563 0.0
1.43472587402 -0.00277054957682 0.0
1.21777555146 -0.0929485976515 0.0
1.42958268713 -0.00289770151333 0.0
1.43895107179 -0.00234565380341 0.0
1.38883287498 -0.00349391351365 0.0
1.43149530877 -0.00245650819781 0.0
1.4235529479 -0.0025742889065 0.0
1.46033021467 -0.000223732306754 0.0
1.41468725427 -0.00269768053379 0.0
1.40604500574 -0.00278108145603 0.0
1.13517800359 -0.0107501744463 0.0
1.17691649856 -0.00899558828215 0.0
1.38016240614 -0.00319519743074 0.0
1.34441319912 -0.00386727532813 0.0
1.29232821759 -0.00571590907817 0.0
1.36946728683 -0.00346453945091 0.0
1.21250262224 -0.00791704980743 0.0
1.29721769873 -0.00225303962271 0.0