# vtk DataFile Version 2.0
2D Simulation Python
ASCII
DATASET UNSTRUCTURED_GRID
FIELD FieldData 1
NODES 1 2 int
2790 1289

POINTS 2790 double
0.0 1.0 0.0
1.725 1.0 0.0
8.275 1.0 0.0
20.0 1.0 0.0
20.0 0.0 0.0
0.0 0.0 0.0
0.1916666666663293 1.0 0.0
0.3833333333324708 1.0 0.0
0.574999999998553 1.0 0.0
0.7666666666645966 1.0 0.0
0.9583333333312576 1.0 0.0
1.149999999998384 1.0 0.0
1.341666666665662 1.0 0.0
1.533333333332819 1.0 0.0
0.0958333333331406 1.0 0.0
0.2874999999994247 1.0 0.0
0.4791666666655395 1.0 0.0
0.6708333333315728 1.0 0.0
0.8624999999976626 1.0 0.0
1.054166666664886 1.0 0.0
1.245833333332057 1.0 0.0
1.437499999999343 1.0 0.0
1.629166666666455 1.0 0.0
1.92348484848444 1.0 0.0
2.121969696968978 1.0 0.0
2.320454545453434 1.0 0.0
2.518939393937826 1.0 0.0
2.717424242422235 1.0 0.0
2.915909090906411 1.0 0.0
3.1143939393908 1.0 0.0
3.312878787875129 1.0 0.0
3.511363636359531 1.0 0.0
3.709848484843827 1.0 0.0
3.90833333332816 1.0 0.0
4.106818181812215 1.0 0.0
4.305303030296804 1.0 0.0
4.503787878781365 1.0 0.0
4.702272727265711 1.0 0.0
4.900757575750005 1.0 0.0
5.099242424235156 1.0 0.0
5.297727272720327 1.0 0.0
5.496212121205663 1.0 0.0
5.694696969690998 1.0 0.0
5.89318181817668 1.0 0.0
6.09166666666213 1.0 0.0
6.290151515147423 1.0 0.0
6.488636363633031 1.0 0.0
6.687121212118713 1.0 0.0
6.885606060604342 1.0 0.0
7.084090909089381 1.0 0.0
7.282575757574369 1.0 0.0
7.481060606059355 1.0 0.0
7.679545454544343 1.0 0.0
7.878030303029329 1.0 0.0
8.076515151514705 1.0 0.0
1.824242424242199 1.0 0.0
2.022727272726695 1.0 0.0
2.221212121211181 1.0 0.0
2.41969696969563 1.0 0.0
2.618181818180092 1.0 0.0
2.816666666664316 1.0 0.0
3.015151515148624 1.0 0.0
3.213636363633039 1.0 0.0
3.412121212117267 1.0 0.0
3.610606060601583 1.0 0.0
3.809090909085975 1.0 0.0
4.007575757570153 1.0 0.0
4.206060606054539 1.0 0.0
4.404545454539001 1.0 0.0
4.603030303023853 1.0 0.0
4.801515151507715 1.0 0.0
4.999999999992074 1.0 0.0
5.198484848477777 1.0 0.0
5.396969696963081 1.0 0.0
5.595454545448261 1.0 0.0
5.793939393933949 1.0 0.0
5.992424242419331 1.0 0.0
6.190909090904785 1.0 0.0
6.389393939390224 1.0 0.0
6.587878787875795 1.0 0.0
6.786363636361617 1.0 0.0
6.984848484846598 1.0 0.0
7.183333333331875 1.0 0.0
7.381818181816625 1.0 0.0
7.580303030301849 1.0 0.0
7.778787878786936 1.0 0.0
7.977272727272114 1.0 0.0
8.175757575757618 1.0 0.0
8.473728813558951 1.0 0.0
8.672457627118133 1.0 0.0
8.871186440676855 1.0 0.0
9.069915254236154 1.0 0.0
9.268644067794812 1.0 0.0
9.467372881354057 1.0 0.0
9.666101694912944 1.0 0.0
9.864830508471961 1.0 0.0
10.06355932203108 1.0 0.0
10.26228813558986 1.0 0.0
10.46101694914916 1.0 0.0
10.65974576270777 1.0 0.0
10.85847457626706 1.0 0.0
11.05720338982589 1.0 0.0
11.25593220338497 1.0 0.0
11.45466101694402 1.0 0.0
11.65338983050287 1.0 0.0
11.85211864406215 1.0 0.0
12.05084745762035 1.0 0.0
12.24957627117938 1.0 0.0
12.44830508473794 1.0 0.0
12.64703389829659 1.0 0.0
12.84576271185557 1.0 0.0
13.04449152541379 1.0 0.0
13.24322033897301 1.0 0.0
13.44194915253121 1.0 0.0
13.6406779660903 1.0 0.0
13.83940677964874 1.0 0.0
14.03813559320751 1.0 0.0
14.23686440676681 1.0 0.0
14.43559322032663 1.0 0.0
14.63432203388679 1.0 0.0
14.8330508474463 1.0 0.0
15.0317796610067 1.0 0.0
15.23050847456608 1.0 0.0
15.42923728812645 1.0 0.0
15.62796610168606 1.0 0.0
15.82669491524602 1.0 0.0
16.02542372880584 1.0 0.0
16.22415254236431 1.0 0.0
16.42288135592496 1.0 0.0
16.62161016948498 1.0 0.0
16.82033898304518 1.0 0.0
17.01906779660567 1.0 0.0
17.2177966101654 1.0 0.0
17.41652542372565 1.0 0.0
17.61525423728425 1.0 0.0
17.81398305084494 1.0 0.0
18.01271186440355 1.0 0.0
18.21144067796387 1.0 0.0
18.41016949152309 1.0 0.0
18.6088983050827 1.0 0.0
18.80762711864282 1.0 0.0
19.00635593220153 1.0 0.0
19.20508474576211 1.0 0.0
19.40381355932072 1.0 0.0
19.60254237288117 1.0 0.0
19.80127118644013 1.0 0.0
8.374364406779554 1.0 0.0
8.573093220338519 1.0 0.0
8.771822033897509 1.0 0.0
8.970550847456504 1.0 0.0
9.169279661015429 1.0 0.0
9.368008474574502 1.0 0.0
9.566737288133496 1.0 0.0
9.765466101692677 1.0 0.0
9.964194915251602 1.0 0.0
10.16292372881015 1.0 0.0
10.36165254236967 1.0 0.0
10.56038135592849 1.0 0.0
10.75911016948728 1.0 0.0
10.95783898304648 1.0 0.0
11.15656779660554 1.0 0.0
11.35529661016447 1.0 0.0
11.55402542372345 1.0 0.0
11.75275423728253 1.0 0.0
11.95148305084111 1.0 0.0
12.15021186439983 1.0 0.0
12.34894067795883 1.0 0.0
12.54766949151722 1.0 0.0
12.74639830507616 1.0 0.0
12.94512711863486 1.0 0.0
13.14385593219357 1.0 0.0
13.34258474575207 1.0 0.0
13.54131355931069 1.0 0.0
13.7400423728695 1.0 0.0
13.93877118642822 1.0 0.0
14.13749999998697 1.0 0.0
14.33622881354686 1.0 0.0
14.53495762710678 1.0 0.0
14.73368644066656 1.0 0.0
14.93241525422655 1.0 0.0
15.13114406778625 1.0 0.0
15.32987288134641 1.0 0.0
15.52860169490635 1.0 0.0
15.7273305084661 1.0 0.0
15.9260593220261 1.0 0.0
16.12478813558534 1.0 0.0
16.32351694914468 1.0 0.0
16.52224576270527 1.0 0.0
16.72097457626511 1.0 0.0
16.91970338982543 1.0 0.0
17.11843220338561 1.0 0.0
17.31716101694539 1.0 0.0
17.51588983050497 1.0 0.0
17.71461864406449 1.0 0.0
17.91334745762401 1.0 0.0
18.11207627118383 1.0 0.0
18.31080508474307 1.0 0.0
18.50953389830311 1.0 0.0
18.70826271186271 1.0 0.0
18.90699152542239 1.0 0.0
19.10572033898203 1.0 0.0
19.30444915254171 1.0 0.0
19.50317796610107 1.0 0.0
19.70190677966065 1.0 0.0
19.90063559322003 1.0 0.0
20.0 0.7999999999999998 0.0
20.0 0.6000000000013869 0.0
20.0 0.4000000000016644 0.0
20.0 0.2000000000008322 0.0
20.0 0.9000000000000369 0.0
20.0 0.7000000000005904 0.0
20.0 0.5000000000017577 0.0
20.0 0.3000000000012483 0.0
20.0 0.1000000000004161 0.0
19.8 0.0 0.0
19.6 0.0 0.0
19.4 0.0 0.0
19.2 0.0 0.0
19.0 0.0 0.0
18.8 0.0 0.0
18.6 0.0 0.0
18.4 0.0 0.0
18.2 0.0 0.0
18.0 0.0 0.0
17.8 0.0 0.0
17.59999999999999 0.0 0.0
17.4 0.0 0.0
17.2 0.0 0.0
16.99999999999999 0.0 0.0
16.79999999999999 0.0 0.0
16.59999999999999 0.0 0.0
16.4 0.0 0.0
16.2 0.0 0.0
15.99999999999999 0.0 0.0
15.79999999999999 0.0 0.0
15.59999999999999 0.0 0.0
15.4 0.0 0.0
15.2 0.0 0.0
15.0 0.0 0.0
14.79999999999999 0.0 0.0
14.59999999999999 0.0 0.0
14.4 0.0 0.0
14.2 0.0 0.0
13.99999999999999 0.0 0.0
13.8 0.0 0.0
13.59999999999999 0.0 0.0
13.4 0.0 0.0
13.2 0.0 0.0
13.0 0.0 0.0
12.79999999999999 0.0 0.0
12.6 0.0 0.0
12.4 0.0 0.0
12.2 0.0 0.0
11.99999999999999 0.0 0.0
11.8 0.0 0.0
11.6 0.0 0.0
11.4 0.0 0.0
11.2 0.0 0.0
11.0 0.0 0.0
10.8 0.0 0.0
10.6 0.0 0.0
10.4 0.0 0.0
10.2 0.0 0.0
9.999999999999998 0.0 0.0
9.799999999999995 0.0 0.0
9.599999999999998 0.0 0.0
9.399999999999997 0.0 0.0
9.199999999999998 0.0 0.0
8.999999999999996 0.0 0.0
8.799999999999997 0.0 0.0
8.599999999999996 0.0 0.0
8.399999999999999 0.0 0.0
8.199999999999996 0.0 0.0
7.999999999999998 0.0 0.0
7.799999999999997 0.0 0.0
7.599999999999998 0.0 0.0
7.399999999999999 0.0 0.0
7.199999999999998 0.0 0.0
6.999999999999995 0.0 0.0
6.799999999999995 0.0 0.0
6.599999999999998 0.0 0.0
6.399999999999997 0.0 0.0
6.199999999999996 0.0 0.0
5.999999999999998 0.0 0.0
5.799999999999999 0.0 0.0
5.599999999999996 0.0 0.0
5.399999999999995 0.0 0.0
5.199999999999996 0.0 0.0
4.999999999999998 0.0 0.0
4.799999999999997 0.0 0.0
4.599999999999998 0.0 0.0
4.399999999999999 0.0 0.0
4.199999999999999 0.0 0.0
3.999999999999996 0.0 0.0
3.799999999999997 0.0 0.0
3.599999999999998 0.0 0.0
3.399999999999999 0.0 0.0
3.199999999999999 0.0 0.0
3.0 0.0 0.0
2.800000000000001 0.0 0.0
2.599999999999998 0.0 0.0
2.399999999999999 0.0 0.0
2.199999999999996 0.0 0.0
1.999999999999996 0.0 0.0
1.800000000000001 0.0 0.0
1.599999999999998 0.0 0.0
1.399999999999999 0.0 0.0
1.200000000000003 0.0 0.0
1.0 0.0 0.0
0.7999999999999972 0.0 0.0
0.5999999999999979 0.0 0.0
0.3999999999999986 0.0 0.0
0.1999999999999993 0.0 0.0
19.90000000000022 0.0 0.0
19.69999999999997 0.0 0.0
19.49999999999987 0.0 0.0
19.30000000000005 0.0 0.0
19.09999999999999 0.0 0.0
18.89999999999987 0.0 0.0
18.7 0.0 0.0
18.49999999999999 0.0 0.0
18.30000000000001 0.0 0.0
18.09999999999987 0.0 0.0
17.90000000000013 0.0 0.0
17.7 0.0 0.0
17.49999999999987 0.0 0.0
17.30000000000025 0.0 0.0
17.10000000000001 0.0 0.0
16.90000000000005 0.0 0.0
16.70000000000003 0.0 0.0
16.50000000000006 0.0 0.0
16.29999999999997 0.0 0.0
16.09999999999999 0.0 0.0
15.89999999999987 0.0 0.0
15.69999999999999 0.0 0.0
15.49999999999999 0.0 0.0
15.3 0.0 0.0
15.10000000000003 0.0 0.0
14.90000000000005 0.0 0.0
14.69999999999992 0.0 0.0
14.49999999999996 0.0 0.0
14.29999999999999 0.0 0.0
14.10000000000008 0.0 0.0
13.89999999999988 0.0 0.0
13.70000000000003 0.0 0.0
13.50000000000004 0.0 0.0
13.29999999999992 0.0 0.0
13.09999999999995 0.0 0.0
12.90000000000016 0.0 0.0
12.7 0.0 0.0
12.49999999999986 0.0 0.0
12.30000000000003 0.0 0.0
12.10000000000016 0.0 0.0
11.90000000000005 0.0 0.0
11.69999999999994 0.0 0.0
11.49999999999993 0.0 0.0
11.30000000000005 0.0 0.0
11.0999999999999 0.0 0.0
10.90000000000004 0.0 0.0
10.69999999999995 0.0 0.0
10.50000000000012 0.0 0.0
10.29999999999999 0.0 0.0
10.09999999999993 0.0 0.0
9.900000000000077 0.0 0.0
9.699999999999969 0.0 0.0
9.499999999999982 0.0 0.0
9.299999999999969 0.0 0.0
9.100000000000108 0.0 0.0
8.899999999999972 0.0 0.0
8.699999999999958 0.0 0.0
8.499999999999998 0.0 0.0
8.30000000000003 0.0 0.0
8.099999999999977 0.0 0.0
7.899999999999974 0.0 0.0
7.700000000000166 0.0 0.0
7.499999999999854 0.0 0.0
7.299999999999997 0.0 0.0
7.100000000000019 0.0 0.0
6.900000000000002 0.0 0.0
6.699999999999974 0.0 0.0
6.500000000000037 0.0 0.0
6.299999999999981 0.0 0.0
6.100000000000014 0.0 0.0
5.899999999999949 0.0 0.0
5.700000000000049 0.0 0.0
5.499999999999956 0.0 0.0
5.300000000000118 0.0 0.0
5.100000000000005 0.0 0.0
4.900000000000109 0.0 0.0
4.699999999999982 0.0 0.0
4.499999999999936 0.0 0.0
4.300000000000137 0.0 0.0
4.100000000000012 0.0 0.0
3.899999999999888 0.0 0.0
3.69999999999974 0.0 0.0
3.500000000000046 0.0 0.0
3.299999999999965 0.0 0.0
3.099999999999817 0.0 0.0
2.900000000000066 0.0 0.0
2.699999999999793 0.0 0.0
2.500000000000064 0.0 0.0
2.299999999999823 0.0 0.0
[...]
POINT_DATA 2790
VECTORS vector double
1.0 0.0 0.0
0.0 0.0 0.0
0.0 0.0 0.0
0.0 0.0 0.0
1.56464072144 0.0 0.0
1.0 0.0 0.0
0.0 0.0 0.0
0.0 0.0 0.0
0.0 0.0 0.0
0.0 0.0 0.0
0.0 0.0 0.0
0.0 0.0 0.0
0.0 0.0 0.0
0.0 0.0 0.0
0.0 0.0 0.0
0.0 0.0 0.0
0.0 0.0 0.0
0.0 0.0 0.0
0.0 0.0 0.0
0.0 0.0 0.0
0.0 0.0 0.0
0.0 0.0 0.0
0.0 0.0 0.0
0.0 0.0 0.0
0.0 0.0 0.0
0.0 0.0 0.0
0.0 0.0 0.0
0.0 0.0 0.0
0.0 0.0 0.0
0.0 0.0 0.0
0.0 0.0 0.0
0.0 0.0 0.0
0.0 0.0 0.0
0.0 0.0 0.0
0.0 0.0 0.0
0.0 0.0 0.0
0.0 0.0 0.0
0.0 0.0 0.0
0.0 0.0 0.0
0.0 0.0 0.0
0.0 0.0 0.0
0.0 0.0 0.0
0.0 0.0 0.0
0.0 0.0 0.0
0.0 0.0 0.0
0.0 0.0 0.0
0.0 0.0 0.0
0.0 0.0 0.0
0.0 0.0 0.0
0.0 0.0 0.0
0.0 0.0 0.0
0.0 0.0 0.0
0.0 0.0 0.0
0.0 0.0 0.0
0.0 0.0 0.0
0.0 0.0 0.0
0.0 0.0 0.0
0.0 0.0 0.0
0.0 0.0 0.0
0.0 0.0 0.0
0.0 0.0 0.0
0.0 0.0 0.0
0.0 0.0 0.0
0.0 0.0 0.0
0.0 0.0 0.0
0.0 0.0 0.0
0.0 0.0 0.0
0.0 0.0 0.0
0.0 0.0 0.0
0.0 0.0 0.0
0.0 0.0 0.0
0.0 0.0 0.0
0.0 0.0 0.0
0.0 0.0 0.0
0.0 0.0 0.0
0.0 0.0 0.0
0.0 0.0 0.0
0.0 0.0 0.0
0.0 0.0 0.0
0.0 0.0 0.0
0.0 0.0 0.0
0.0 0.0 0.0
0.0 0.0 0.0
0.0 0.0 0.0
0.0 0.0 0.0
0.0 0.0 0.0
0.0 0.0 0.0
0.0 0.0 0.0
0.0 0.0 0.0
0.0 0.0 0.0
0.0 0.0 0.0
0.0 0.0 0.0
0.0 0.0 0.0
0.0 0.0 0.0
0.0 0.0 0.0
0.0 0.0 0.0
0.0 0.0 0.0
0.0 0.0 0.0
0.0 0.0 0.0
0.0 0.0 0.0
0.0 0.0 0.0
0.0 0.0 0.0
0.0 0.0 0.0
0.0 0.0 0.0
0.0 0.0 0.0
0.0 0.0 0.0
0.0 0.0 0.0
0.0 0.0 0.0
0.0 0.0 0.0
0.0 0.0 0.0
0.0 0.0 0.0
0.0 0.0 0.0
0.0 0.0 0.0
0.0 0.0 0.0
0.0 0.0 0.0
0.0 0.0 0.0
0.0 0.0 0.0
0.0 0.0 0.0
0.0 0.0 0.0
0.0 0.0 0.0
0.0 0.0 0.0
0.0 0.0 0.0
0.0 0.0 0.0
0.0 0.0 0.0
0.0 0.0 0.0
0.0 0.0 0.0
0.0 0.0 0.0
0.0 0.0 0.0
0.0 0.0 0.0
0.0 0.0 0.0
0.0 0.0 0.0
0.0 0.0 0.0
0.0 0.0 0.0
0.0 0.0 0.0
0.0 0.0 0.0
0.0 0.0 0.0
0.0 0.0 0.0
0.0 0.0 0.0
0.0 0.0 0.0
0.0 0.0 0.0
0.0 0.0 0.0
0.0 0.0 0.0
0.0 0.0 0.0
0.0 0.0 0.0
0.0 0.0 0.0
0.0 0.0 0.0
0.0 0.0 0.0
0.0 0.0 0.0
0.0 0.0 0.0
0.0 0.0 0.0
0.0 0.0 0.0
0.0 0.0 0.0
0.0 0.0 0.0
0.0 0.0 0.0
0.0 0.0 0.0
0.0 0.0 0.0
0.0 0.0 0.0
0.0 0.0 0.0
0.0 0.0 0.0
0.0 0.0 0.0
0.0 0.0 0.0
0.0 0.0 0.0
0.0 0.0 0.0
0.0 0.0 0.0
0.0 0.0 0.0
0.0 0.0 0.0
0.0 0.0 0.0
0.0 0.0 0.0
0.0 0.0 0.0
0.0 0.0 0.0
0.0 0.0 0.0
0.0 0.0 0.0
0.0 0.0 0.0
0.0 0.0 0.0
0.0 0.0 0.0
0.0 0.0 0.0
0.0 0.0 0.0
0.0 0.0 0.0
0.0 0.0 0.0
0.0 0.0 0.0
0.0 0.0 0.0
0.0 0.0 0.0
0.0 0.0 0.0
0.0 0.0 0.0
0.0 0.0 0.0
0.0 0.0 0.0
0.0 0.0 0.0
0.0 0.0 0.0
0.0 0.0 0.0
0.0 0.0 0.0
0.0 0.0 0.0
0.0 0.0 0.0
0.0 0.0 0.0
0.0 0.0 0.0
0.0 0.0 0.0
0.0 0.0 0.0
0.0 0.0 0.0
0.0 0.0 0.0
0.0 0.0 0.0
0.0 0.0 0.0
0.0 0.0 0.0
0.0 0.0 0.0
0.0 0.0 0.0
0.0 0.0 0.0
0.0 0.0 0.0
0.549227001715 5.19853823672e-05 0.0
0.965413007937 -8.09503110155e-05 0.0
1.2526144879 -0.000247935808921 0.0
1.43643867438 -0.000274321652964 0.0
0.281568238552 5.69976687018e-05 0.0
0.762914422444 0.0011913289871 0.0
1.11389606331 -9.13589711229e-05 0.0
1.34705535973 -0.000852869236069 0.0
1.49975157501 -0.000242233846076 0.0
1.56402610733 0.0 0.0
1.56417996031 0.0 0.0
1.56447918221 0.0 0.0
1.56489943781 0.0 0.0
1.56423724239 0.0 0.0
1.56523230758 0.0 0.0
1.56541240053 0.0 0.0
1.56481374934 0.0 0.0
1.56532942231 0.0 0.0
1.56523441357 0.0 0.0
1.56429786221 0.0 0.0
1.56433097217 0.0 0.0
1.5634790269 0.0 0.0
1.56164918489 0.0 0.0
1.5592023557 0.0 0.0
1.55733104276 0.0 0.0
1.55639169346 0.0 0.0
1.55344710245 0.0 0.0
1.55119043776 0.0 0.0
1.55010634841 0.0 0.0
1.54705837184 0.0 0.0
1.54476762144 0.0 0.0
1.54361941934 0.0 0.0
1.54042767186 0.0 0.0
1.53795307659 0.0 0.0
1.53660933315 0.0 0.0
1.53317332106 0.0 0.0
1.53042818858 0.0 0.0
1.52883150899 0.0 0.0
1.52510366908 0.0 0.0
1.52203965996 0.0 0.0
1.52014992106 0.0 0.0
1.51609741373 0.0 0.0
1.51268728132 0.0 0.0
1.51047470633 0.0 0.0
1.50608455624 0.0 0.0
1.50231865437 0.0 0.0
1.49979145536 0.0 0.0
1.49474684767 0.0 0.0
1.49039990045 0.0 0.0
1.48756586194 0.0 0.0
1.48264633829 0.0 0.0
1.47802976882 0.0 0.0
1.47489846782 0.0 0.0
1.46968145475 0.0 0.0
1.46476757315 0.0 0.0
1.46135246962 0.0 0.0
1.45583569492 0.0 0.0
1.4507443802 0.0 0.0
1.44704206028 0.0 0.0
1.44125151016 0.0 0.0
1.43595025533 0.0 0.0
1.43198350975 0.0 0.0
1.42894385479 0.0 0.0
1.42231388018 0.0 0.0
1.41569662172 0.0 0.0
1.40997181201 0.0 0.0
1.40522712158 0.0 0.0
1.39902153441 0.0 0.0
1.39319950491 0.0 0.0
1.38879192294 0.0 0.0
1.3822799498 0.0 0.0
1.37609197794 0.0 0.0
1.37140530828 0.0 0.0
1.36458676106 0.0 0.0
1.35813688274 0.0 0.0
1.3531620784 0.0 0.0
1.34605485139 0.0 0.0
1.33933673008 0.0 0.0
1.33381717356 0.0 0.0
1.32873867047 0.0 0.0
1.32029636814 0.0 0.0
1.31338196916 0.0 0.0
1.30571283391 0.0 0.0
1.29721287594 0.0 0.0
1.29017290355 0.0 0.0
1.28102325144 0.0 0.0
1.27213239618 0.0 0.0
1.26411290292 0.0 0.0
1.25616737694 0.0 0.0
1.24698892027 0.0 0.0
1.2382676764 0.0 0.0
1.22944820047 0.0 0.0
1.21972217754 0.0 0.0
1.21014913999 0.0 0.0
1.20028663792 0.0 0.0
1.18984713498 0.0 0.0
1.17919796298 0.0 0.0
1.16796658709 0.0 0.0
1.15635810558 0.0 0.0
1.14408201666 0.0 0.0
1.13057934598 0.0 0.0
1.11631898058 0.0 0.0
1.10063154791 0.0 0.0
1.08228813643 0.0 0.0
1.06264403662 0.0 0.0
1.04146236547 0.0 0.0
1.0189961973 0.0 0.0
1.00322197799 0.0 0.0
1.56439887906 0.0 0.0
1.56367229808 0.0 0.0
1.56510917077 0.0 0.0
1.56392480068 0.0 0.0
1.56396885447 0.0 0.0
1.56439500038 0.0 0.0
1.56599492311 0.0 0.0
1.56458783142 0.0 0.0
1.56450020465 0.0 0.0
1.56589371481 0.0 0.0
1.56420167209 0.0 0.0
1.56373502018 0.0 0.0
1.5644981765 0.0 0.0
1.56195290072 0.0 0.0
1.56051082098 0.0 0.0
1.55768637591 0.0 0.0
1.55703551003 0.0 0.0
1.55498218644 0.0 0.0
1.55161629031 0.0 0.0
1.55077313128 0.0 0.0
1.54863173399 0.0 0.0
1.54520740588 0.0 0.0
1.54431595743 0.0 0.0
1.54206365576 0.0 0.0
1.53846085152 0.0 0.0
1.53739245637 0.0 0.0
1.53490454235 0.0 0.0
1.53103166672 0.0 0.0
1.52972297387 0.0 0.0
1.52694761205 0.0 0.0
1.52275582384 0.0 0.0
1.52116513586 0.0 0.0
1.51806721645 0.0 0.0
1.51352393646 0.0 0.0
1.51162634129 0.0 0.0
1.5082057557 0.0 0.0
1.50333023315 0.0 0.0
1.50104748153 0.0 0.0
1.49716449808 0.0 0.0
1.49168046527 0.0 0.0
1.48864097727 0.0 0.0
1.48514705176 0.0 0.0
1.47942966434 0.0 0.0
1.47608578846 0.0 0.0
1.47230089635 0.0 0.0
1.46627934301 0.0 0.0
1.46265386993 0.0 0.0
1.45858479406 0.0 0.0
1.45231277523 0.0 0.0
1.4484829201 0.0 0.0
1.44414425685 0.0 0.0
1.43767223639 0.0 0.0
1.43360327125 0.0 0.0
1.42924634042 0.0 0.0
1.42474717947 0.0 0.0
1.41868637744 0.0 0.0
1.41187116718 0.0 0.0
1.40723803175 0.0 0.0
1.4021252173 0.0 0.0
1.39527527613 0.0 0.0
1.39056887998 0.0 0.0
1.38553530263 0.0 0.0
1.37819380516 0.0 0.0
1.37330185466 0.0 0.0
1.36794674882 0.0 0.0
1.36039191619 0.0 0.0
1.35520841835 0.0 0.0
1.34953617533 0.0 0.0
1.34181195691 0.0 0.0
1.33618280767 0.0 0.0
1.33008634116 0.0 0.0
1.32358108188 0.0 0.0
1.31617000975 0.0 0.0
1.30887269884 0.0 0.0
1.30088363299 0.0 0.0
1.29314765803 0.0 0.0
1.28434661185 0.0 0.0
1.27613611841 0.0 0.0
1.26760534906 0.0 0.0
1.25997236708 0.0 0.0
1.25108611177 0.0 0.0
1.24217093387 0.0 0.0
1.23364421828 0.0 0.0
1.2241820024 0.0 0.0
1.21461379741 0.0 0.0
1.20499277011 0.0 0.0
1.19480204046 0.0 0.0
1.18438433209 0.0 0.0
1.17337412098 0.0 0.0
1.16205723177 0.0 0.0
1.15023921492 0.0 0.0
1.13716657659 0.0 0.0
1.12347016667 0.0 0.0
1.10858558844 0.0 0.0
1.09126471141 0.0 0.0
1.07225477199 0.0 0.0
1.0521685431 0.0 0.0
1.02978705802 0.0 0.0
1.01021876034 0.0 0.0
0.999491088863 0.0 0.0
1.0 0.0 0.0
1.0 0.0 0.0
1.0 0.0 0.0
1.0 0.0 0.0
1.0 0.0 0.0
1.0 0.0 0.0
1.0 0.0 0.0
1.0 0.0 0.0
1.0 0.0 0.0
1.17337551972 -0.0686221880656 0.0
1.2245429265 -0.0449576004451 0.0
1.22426526663 -0.0308208015994 0.0
1.07387874038 4.2054018606e-05 0.0
1.11088298018 1.335744089e-05 0.0
1.10985804313 -2.07103354192e-05 0.0
1.10703104837 -0.000193809592915 0.0
1.10575485221 -0.000660770071374 0.0
1.10717843392 -0.00110221318153 0.0
1.10867738985 -0.00135613119781 0.0
1.11031444668 -0.00150702563521 0.0
1.11215412727 -0.00165158422904 0.0
1.11426198321 -0.00182679948916 0.0
1.11667576713 -0.00204700844679 0.0
1.11943512948 -0.00229927678937 0.0
1.07324319814 -0.00232554901102 0.0
1.07719309027 -0.00252970783507 0.0
1.08152278733 -0.00281690365137 0.0
1.08619775241 -0.00307832432828 0.0
1.14436134367 -0.0044441041374 0.0
1.21381415042 -0.0227014849107 0.0
1.11435154932 -0.00443486381835 0.0
1.09130353876 -0.00325928593082 0.0
1.19816990216 -0.0174307083138 0.0
1.1220088825 -0.00492291888507 0.0
1.13410754191 -0.00389692760344 0.0
1.18309852277 -0.0137601634509 0.0
1.13080176019 -0.00534794772981 0.0
1.16941951841 -0.0112218800625 0.0
1.17033144976 -0.00672989689217 0.0
1.18251195083 -0.0104984044548 0.0
1.14074323444 -0.00438479129649 0.0
1.15765932352 -0.00988901562774 0.0
0.866675413478 -0.000578143882243 0.0
1.21452602994 -0.169810527687 0.0
1.29086507468 -0.011012898501 0.0
1.27979657824 -0.0128675461207 0.0
1.30711817496 -0.00735743168633 0.0
1.26655442065 -0.0152410386194 0.0
1.30709864565 -0.00661628889644 0.0
1.21942547115 -0.021827920277 0.0
1.24736138925 -0.0181763537633 0.0
1.30883130909 -0.00607262984712 0.0
1.31001661843 -0.00558813708827 0.0
1.31190573433 -0.00473360557235 0.0
1.31243573693 -0.00443239111554 0.0
1.31264556283 -0.00414534961621 0.0
1.312735013 -0.00378509339356 0.0
1.31264684854 -0.00344861421281 0.0
1.3029413325 -0.00314899914936 0.0
1.3024637954 -0.00276929196062 0.0
1.30219264222 -0.00248001812706 0.0
1.19922909989 -0.0556153055232 0.0
1.30186857117 -0.00222434254662 0.0
1.30164760613 -0.00201627909459 0.0
1.3015113436 -0.00184280025943 0.0
1.17881494664 -0.0271663822883 0.0
1.30133452388 -0.00166916615304 0.0
1.12215472256 -0.0285789767632 0.0
1.13091180554 -0.0370274982475 0.0
1.29899852371 -0.00131503493009 0.0
1.29830769799 -0.000774844695304 0.0
0.822650740086 -0.000289474347204 0.0
1.29761256483 -0.00017553551607 0.0
0.822301994526 -0.000183448921075 0.0
0.951270560941 -0.00692053315838 0.0
0.971195104871 -0.0082166951708 0.0
0.909833655218 -0.00293374703112 0.0
1.0674963195 -0.0188558860531 0.0
0.995554828641 -0.010475140825 0.0
0.897538890475 -0.00333073067647 0.0
1.02661751851 -0.0138825724149 0.0
0.887315670708 -0.00310960814176 0.0
0.878220454918 -0.00273604188516 0.0
0.870216985813 -0.00206439755101 0.0
0.863613489373 -0.00228490925209 0.0
0.857502518535 -0.0020973516576 0.0
0.851875100144 -0.00190356834714 0.0
0.846801519621 -0.00171413667748 0.0
0.842359596767 -0.00144862989661 0.0
0.838340729491 -0.00134105202143 0.0
0.83484757807 -0.0012013869908 0.0
0.831690043951 -0.00108388613625 0.0
0.828837159596 -0.000996386862748 0.0
0.826258089551 -0.000915421853387 0.0
1.30188909639 -7.23249728404e-06 0.0
0.824003824015 -0.000798485665764 0.0
0.822246671611 -0.000613432523698 0.0
0.821309355638 -0.000249868086079 0.0
0.821047329818 -6.65496109586e-05 0.0
1.31918743578 -2.69460280739e-05 0.0
1.0333798366 -0.0388318331597 0.0
1.32438750862 0.000166939921126 0.0
1.3119199775 -0.00511770183764 0.0
1.30967550066 -0.00862691261636 0.0
1.30165213439 -0.00984517376795 0.0
1.32425459207 -0.00540729981537 0.0
0.81336924082 -0.0032127248255 0.0
0.854394491158 -0.00216816774222 0.0
0.870212940527 -0.00351670833263 0.0
0.87988782007 -0.00733782536344 0.0
1.15801894309 -0.0656276452852 0.0
1.00925167533 -0.0247598766988 0.0
1.32664994042 -0.000107618343137 0.0
1.37825304332 -0.00308035798596 0.0
1.37545799559 -0.00340571482707 0.0
1.13988847449 -0.0216761845469 0.0
1.36708416274 -0.00298684755456 0.0
1.07552895089 -0.029007806519 0.0
1.37212591387 -0.0037092247706 0.0
1.36861860995 -0.00265968057967 0.0
1.36991196383 -0.00237811834916 0.0
1.36360770413 -0.00401679215791 0.0
0.919674049225 -0.014289924354 0.0
1.37112178513 -0.00213798754039 0.0
1.36012290221 -0.00424537860116 0.0
1.37229053172 -0.00194028087895 0.0
1.37340025385 -0.00178287681781 0.0
1.18632185597 -0.017628695112 0.0
1.37425551368 -0.00159649793309 0.0
1.36439893207 -0.00114463925361 0.0
1.41218242551 -0.000517686815104 0.0
0.596249761385 0.000193198807514 0.0
1.3506334094 -0.00496123822011 0.0
1.4086831137 -0.000114750250667 0.0
0.611871397479 0.000225436380082 0.0
0.570108751596 0.000482347917915 0.0
1.40857032387 1.38726015906e-05 0.0
0.593937168277 0.000288997795859 0.0
1.3466532098 -0.00526480305854 0.0
1.22227729831 -0.015062435503 0.0
0.593975990897 0.0001577157348 0.0
0.594899740921 5.50831554572e-05 0.0
0.596410166973 -9.45909242883e-06 0.0
0.598298936122 -3.49971416055e-05 0.0
1.34049165149 -0.00568650221291 0.0
1.2514460613 -0.013030211101 0.0
0.600436122307 -6.09093390899e-05 0.0
0.602810571325 -0.000100075581779 0.0
0.605481478413 -0.000166786441081 0.0
0.608407408732 -0.000218449523683 0.0
0.612411115401 -0.000433422932215 0.0
1.33260441387 -0.00618078820883 0.0
1.2742576756 -0.0113033330145 0.0
0.616316850404 -0.000502649545155 0.0
0.620741774442 -0.000573783722823 0.0
0.488725595654 -0.000476289387249 0.0
0.625676823774 -0.000673365413194 0.0
0.807703372071 -0.00739443601047 0.0
0.64937458919 -0.000809413124252 0.0
0.76989138533 -0.00524280874753 0.0
0.657349498208 -0.000984138899675 0.0
0.630823386702 -0.000699897125207 0.0
0.741910209722 -0.00389339524164 0.0
0.665626357931 -0.000823581929446 0.0
0.720196985502 -0.00296393780581 0.0
0.50983427639 0.000426148164081 0.0
0.596303704828 -0.0020531305777 0.0
0.532065077683 -0.000185583091344 0.0
1.32397109496 -0.00649283532165 0.0
1.29251130704 -0.0099687428741 0.0
1.30535830532 -0.00919408921809 0.0
1.32824914763 -0.0071384350783 0.0
1.3541757979 -0.00475285298729 0.0
1.36243394069 -0.00448865539366 0.0
0.616972907331 -0.00256743096463 0.0
0.832578668934 -0.00767032369805 0.0
1.41083125227 -4.85258014953e-05 0.0
1.03255486321 -0.0555333350597 0.0
1.10612400746 -0.000116805364049 0.0
1.17433062712 -0.000141006330266 0.0
1.04177425496 -0.0211210787017 0.0
0.4916753467 5.14928042656e-05 0.0
1.10988354341 -0.0829318438839 0.0
0.972795456882 -0.0556254295535 0.0
0.539785799679 -0.000991226189283 0.0
1.42272585254 -0.00264282019677 0.0
1.41859057951 -0.00296620211197 0.0
1.42549073071 -0.00226452405563 0.0
1.41307806729 -0.00320944387277 0.0
1.28631941913 -0.312789550844 0.0
1.40647803586 -0.0034751288553 0.0
1.42925043104 -0.00202043825839 0.0
1.39994194964 -0.00368800588354 0.0
1.43258358996 -0.00179809212008 0.0
1.4356071481 -0.00160730854396 0.0
1.19733605863 -0.0108171201729 0.0
1.37116383465 -0.00444525307829 0.0
1.10912971317 -0.0168695606491 0.0
1.36150945163 -0.00475167542289 0.0
1.23125465748 -0.00948011121579 0.0
1.43838184974 -0.00145003090922 0.0
1.35072026663 -0.0050980142534 0.0
1.25985813247 -0.0083857755224 0.0
1.15737703681 -0.0128269792995 0.0
1.28397441228 -0.00745681979105 0.0
1.44093655388 -0.00134466698983 0.0
1.44190232339 -0.00121948650114 0.0
1.44215073341 -0.000817692402854 0.0
1.43943907338 1.56664693018e-06 0.0
1.44108675378 0.000181353164689 0.0
1.44237768304 3.3398514994e-05 0.0
1.14563345637 -0.00431041726789 0.0
0.713020395297 -0.00871784691274 0.0
0.76265436693 -0.0141236164599 0.0
0.82359323647 -0.0209738226841 0.0
0.682506542551 -0.00753609682057 0.0
0.460247913324 -0.000467849664273 0.0
0.460425361332 -0.000513157113732 0.0
0.461270583315 -0.000615836183967 0.0
1.19501438101 -0.00840631647651 0.0
0.462633302086 -0.000661072355464 0.0
0.464341944276 -0.0006870352902 0.0
0.466259479193 -0.000714387422198 0.0
1.11031673898 0.000249207539293 0.0
1.20009235647 -0.0106525031829 0.0
0.46836279217 -0.000749479188993 0.0
1.11054451225 2.35255616836e-05 0.0
0.47070143762 -0.000801285653677 0.0
0.473339413321 -0.000895946080497 0.0
0.476089016343 -0.000521935320266 0.0
0.479400073095 -0.000605049759936 0.0
1.09740113399 -2.72733216552e-05 0.0
0.483165697544 -0.000664698782765 0.0
1.09777813559 -2.45463198213e-06 0.0
0.468405268764 -0.000374854748915 0.0
0.487362668724 -0.000726315729173 0.0
1.09878195359 -0.00057998562615 0.0
0.470372669598 -0.000365874799036 0.0
1.10070547815 -0.000876367274221 0.0
0.467020594826 -0.000711183448057 0.0
0.491990243281 -0.000824717267552 0.0
1.10230091682 -0.00103251251116 0.0
0.467683569159 -0.000329770077208 0.0
0.48217946466 -0.000288741812668 0.0
1.10405469342 -0.00116093993131 0.0
0.656445908931 -0.00682364482055 0.0
1.10604033741 -0.00131010614097 0.0
1.10833967708 -0.00150511579108 0.0
0.509631144755 -0.000804209216877 0.0
1.11087216269 -0.00173119509097 0.0
1.11108292905 -0.00210650392493 0.0
1.22520656639 -0.0264170118605 0.0
0.621561059802 -0.00451296000734 0.0
0.516292034254 -0.00116063872558 0.0
1.11247374792 -0.0022169461204 0.0
1.11634986681 -0.00251329706957 0.0
0.59641791199 -0.00348669464058 0.0
0.523439466066 -0.00121946775582 0.0
1.12059698803 -0.00278930173635 0.0
0.57735767283 -0.00280009665358 0.0
0.505665409295 -0.000491049796876 0.0
1.12513148148 -0.00302756532149 0.0
1.12740823386 -0.00316960604713 0.0
0.547997652581 -0.00202998889762 0.0
1.13954317751 -0.0047496455818 0.0
1.14633042703 -0.00418762271459 0.0
1.15309937123 -0.00455410800708 0.0
1.21745857328 -0.0204649099664 0.0
1.16062751631 -0.00500166133342 0.0
1.20763706802 -0.0163173519948 0.0
1.16559898367 -0.00556122098027 0.0
1.19768478071 -0.0133772252886 0.0
1.18507492196 -0.0113507107642 0.0
1.22279951205 -0.0387432634969 0.0
1.20511000825 -0.052309834275 0.0
1.18839569973 -0.0591316783072 0.0
1.1828960125 -0.0097439894538 0.0
1.22559906815 -0.0354443985621 0.0
1.22357519938 -0.0268265248663 0.0
1.19312913986 -0.0119003863857 0.0
1.15676942511 -0.0069011825175 0.0
1.20453513704 -0.0150691217112 0.0
1.14800521948 -0.00640990919412 0.0
1.2156339252 -0.0195573222758 0.0
1.14094246208 -0.0058980615951 0.0
0.573133314526 -0.00217147425691 0.0
1.14098741123 -0.00511846997977 0.0
0.59221140158 -0.00298579122151 0.0
0.532615068638 -0.00111986893708 0.0
0.658822033355 -0.00638437195829 0.0
1.12090938347 -0.00446976800566 0.0
0.613480319236 -0.0038051434036 0.0
0.530042050812 -0.00141521342772 0.0
1.11655592666 -0.00435993411458 0.0
1.1121987569 -0.00405882043931 0.0
0.641890407536 -0.00499220915855 0.0
0.523100029766 -0.00132617944424 0.0
1.10813719952 -0.00373676568809 0.0
1.43833932412 -0.000365914919447 0.0
1.10439901453 -0.00343501656068 0.0
1.11469893633 -0.00282065666326 0.0
0.493542403201 -0.000395644179107 0.0
1.11244634345 -0.00254060173117 0.0
1.11010435022 -0.00231485401182 0.0
1.10801833837 -0.00212538430618 0.0
1.10621148847 -0.00197539160295 0.0
1.10462184651 -0.00183615256714 0.0
1.10317514789 -0.00163971878192 0.0
1.10131519399 -0.00136957529085 0.0
1.1023360705 -5.4764935767e-06 0.0
1.10098267557 -0.000443061655863 0.0
1.10134665578 -0.000355171732693 0.0
1.09832644878 -0.000611254074959 0.0
1.3801211125 -0.00412256249218 0.0
1.44155161873 -0.000855987274007 0.0
0.503536344302 -0.00112038610143 0.0
0.4941271184 -0.00113516745038 0.0
0.489594870353 -0.00103482716172 0.0
0.485532613286 -0.000965442373722 0.0
0.48189437785 -0.000915924224608 0.0
1.44131049085 -0.00125313494614 0.0
0.478891879031 -0.000515881716483 0.0
0.476102228389 -0.000572996914693 0.0
0.473553549745 -0.000511549473461 0.0
0.471299885492 -0.00047138308799 0.0
0.469263425277 -0.000443458155801 0.0
0.467413607833 -0.000421469967934 0.0
1.44079755577 -0.00150698021719 0.0
0.465805316331 -0.000384814851248 0.0
0.464610449418 -0.000333731493465 0.0
0.464065768787 -0.000223498958073 0.0
0.467277387829 0.00013816549923 0.0
1.43829852828 -0.00160308524203 0.0
1.43556293899 -0.00174819697139 0.0
1.3115597202 -0.00744584279488 0.0
1.43261439339 -0.00193027312829 0.0
1.33224416791 -0.00536166578584 0.0
0.868641093583 -6.9406541666e-05 0.0
1.42939449693 -0.00214723698095 0.0
1.00550258686 -0.0108359964438 0.0
1.08431580134 -0.0195910543025 0.0
1.43828387747 -0.000159971287119 0.0
1.42580051815 -0.00239137667012 0.0
1.22618306541 -0.0987955250435 0.0
1.42198250355 -0.00262827241614 0.0
1.43287004693 -0.00226487983698 0.0
1.38566349517 -0.00358952638202 0.0
1.42646964467 -0.00246713281786 0.0
1.41931609631 -0.00268580351286 0.0
1.43650405898 -0.000125561197013 0.0
1.41110254031 -0.00287757109636 0.0
1.40299945012 -0.00287152550582 0.0
1.13553272207 -0.0117970109073 0.0
1.17789937863 -0.00966885687826 0.0
1.37845432418 -0.00345837392555 0.0
1.34410014474 -0.00407441272607 0.0
1.29295180372 -0.00613680165315 0.0
1.36812289911 -0.00370570622849 0.0
1.21360365849 -0.00852990701747 0.0