# vtk DataFile Version 2.0
2D Simulation Python
ASCII
DATASET UNSTRUCTURED_GRID
FIELD FieldData 1
NODES 1 2 int
2790 1289

POINTS 2790 double
0.0 1.0 0.0
1.725 1.0 0.0
8.275 1.0 0.0
20.0 1.0 0.0
20.0 0.0 0.0
0.0 0.0 0.0
0.1916666666663293 1.0 0.0
0.3833333333324708 1.0 0.0
0.574999999998553 1.0 0.0
0.7666666666645966 1.0 0.0
0.9583333333312576 1.0 0.0
1.149999999998384 1.0 0.0
1.341666666665662 1.0 0.0
1.533333333332819 1.0 0.0
0.0958333333331406 1.0 0.0
0.2874999999994247 1.0 0.0
0.4791666666655395 1.0 0.0
0.6708333333315728 1.0 0.0
0.8624999999976626 1.0 0.0
1.054166666664886 1.0 0.0
1.245833333332057 1.0 0.0
1.437499999999343 1.0 0.0
1.629166666666455 1.0 0.0
1.92348484848444 1.0 0.0
2.121969696968978 1.0 0.0
2.320454545453434 1.0 0.0
2.518939393937826 1.0 0.0
2.717424242422235 1.0 0.0
2.915909090906411 1.0 0.0
3.1143939393908 1.0 0.0
3.312878787875129 1.0 0.0
3.511363636359531 1.0 0.0
3.709848484843827 1.0 0.0
3.90833333332816 1.0 0.0
4.106818181812215 1.0 0.0
4.305303030296804 1.0 0.0
4.503787878781365 1.0 0.0
4.702272727265711 1.0 0.0
4.900757575750005 1.0 0.0
5.099242424235156 1.0 0.0
5.297727272720327 1.0 0.0
5.496212121205663 1.0 0.0
5.694696969690998 1.0 0.0
5.89318181817668 1.0 0.0
6.09166666666213 1.0 0.0
6.290151515147423 1.0 0.0
6.488636363633031 1.0 0.0
6.687121212118713 1.0 0.0
6.885606060604342 1.0 0.0
7.084090909089381 1.0 0.0
7.282575757574369 1.0 0.0
7.481060606059355 1.0 0.0
7.679545454544343 1.0 0.0
7.878030303029329 1.0 0.0
8.076515151514705 1.0 0.0
1.824242424242199 1.0 0.0
2.022727272726695 1.0 0.0
2.221212121211181 1.0 0.0
2.41969696969563 1.0 0.0
2.618181818180092 1.0 0.0
2.816666666664316 1.0 0.0
3.015151515148624 1.0 0.0
3.213636363633039 1.0 0.0
3.412121212117267 1.0 0.0
3.610606060601583 1.0 0.0
3.809090909085975 1.0 0.0
4.007575757570153 1.0 0.0
4.206060606054539 1.0 0.0
4.404545454539001 1.0 0.0
4.603030303023853 1.0 0.0
4.801515151507715 1.0 0.0
4.999999999992074 1.0 0.0
5.198484848477777 1.0 0.0
5.396969696963081 1.0 0.0
5.595454545448261 1.0 0.0
5.793939393933949 1.0 0.0
5.992424242419331 1.0 0.0
6.190909090904785 1.0 0.0
6.389393939390224 1.0 0.0
6.587878787875795 1.0 0.0
6.786363636361617 1.0 0.0
6.984848484846598 1.0 0.0
7.183333333331875 1.0 0.0
7.381818181816625 1.0 0.0
7.580303030301849 1.0 0.0
7.778787878786936 1.0 0.0
7.977272727272114 1.0 0.0
8.175757575757618 1.0 0.0
8.473728813558951 1.0 0.0
8.672457627118133 1.0 0.0
8.871186440676855 1.0 0.0
9.069915254236154 1.0 0.0
9.268644067794812 1.0 0.0
9.467372881354057 1.0 0.0
9.666101694912944 1.0 0.0
9.864830508471961 1.0 0.0
10.06355932203108 1.0 0.0
10.26228813558986 1.0 0.0
10.46101694914916 1.0 0.0
10.65974576270777 1.0 0.0
10.85847457626706 1.0 0.0
11.05720338982589 1.0 0.0
11.25593220338497 1.0 0.0
11.45466101694402 1.0 0.0
11.65338983050287 1.0 0.0
11.85211864406215 1.0 0.0
12.05084745762035 1.0 0.0
12.24957627117938 1.0 0.0
12.44830508473794 1.0 0.0
12.64703389829659 1.0 0.0
12.84576271185557 1.0 0.0
13.04449152541379 1.0 0.0
13.24322033897301 1.0 0.0
13.44194915253121 1.0 0.0
13.6406779660903 1.0 0.0
13.83940677964874 1.0 0.0
14.03813559320751 1.0 0.0
14.23686440676681 1.0 0.0
14.43559322032663 1.0 0.0
14.63432203388679 1.0 0.0
14.8330508474463 1.0 0.0
15.0317796610067 1.0 0.0
15.23050847456608 1.0 0.0
15.42923728812645 1.0 0.0
15.62796610168606 1.0 0.0
15.82669491524602 1.0 0.0
16.02542372880584 1.0 0.0
16.22415254236431 1.0 0.0
16.42288135592496 1.0 0.0
16.62161016948498 1.0 0.0
16.82033898304518 1.0 0.0
17.01906779660567 1.0 0.0
17.2177966101654 1.0 0.0
17.41652542372565 1.0 0.0
17.61525423728425 1.0 0.0
17.81398305084494 1.0 0.0
18.01271186440355 1.0 0.0
18.21144067796387 1.0 0.0
18.41016949152309 1.0 0.0
18.6088983050827 1.0 0.0
18.80762711864282 1.0 0.0
19.00635593220153 1.0 0.0
19.20508474576211 1.0 0.0
19.40381355932072 1.0 0.0
19.60254237288117 1.0 0.0
19.80127118644013 1.0 0.0
8.374364406779554 1.0 0.0
8.573093220338519 1.0 0.0
8.771822033897509 1.0 0.0
8.970550847456504 1.0 0.0
9.169279661015429 1.0 0.0
9.368008474574502 1.0 0.0
9.566737288133496 1.0 0.0
9.765466101692677 1.0 0.0
9.964194915251602 1.0 0.0
10.16292372881015 1.0 0.0
10.36165254236967 1.0 0.0
10.56038135592849 1.0 0.0
10.75911016948728 1.0 0.0
10.95783898304648 1.0 0.0
11.15656779660554 1.0 0.0
11.35529661016447 1.0 0.0
11.55402542372345 1.0 0.0
11.75275423728253 1.0 0.0
11.95148305084111 1.0 0.0
12.15021186439983 1.0 0.0
12.34894067795883 1.0 0.0
12.54766949151722 1.0 0.0
12.74639830507616 1.0 0.0
12.94512711863486 1.0 0.0
13.14385593219357 1.0 0.0
13.34258474575207 1.0 0.0
13.54131355931069 1.0 0.0
13.7400423728695 1.0 0.0
13.93877118642822 1.0 0.0
14.13749999998697 1.0 0.0
14.33622881354686 1.0 0.0
14.53495762710678 1.0 0.0
14.73368644066656 1.0 0.0
14.93241525422655 1.0 0.0
15.13114406778625 1.0 0.0
15.32987288134641 1.0 0.0
15.52860169490635 1.0 0.0
15.7273305084661 1.0 0.0
15.9260593220261 1.0 0.0
16.12478813558534 1.0 0.0
16.32351694914468 1.0 0.0
16.52224576270527 1.0 0.0
16.72097457626511 1.0 0.0
16.91970338982543 1.0 0.0
17.11843220338561 1.0 0.0
17.31716101694539 1.0 0.0
17.51588983050497 1.0 0.0
17.71461864406449 1.0 0.0
17.91334745762401 1.0 0.0
18.11207627118383 1.0 0.0
18.31080508474307 1.0 0.0
18.50953389830311 1.0 0.0
18.70826271186271 1.0 0.0
18.90699152542239 1.0 0.0
19.10572033898203 1.0 0.0
19.30444915254171 1.0 0.0
19.50317796610107 1.0 0.0
19.70190677966065 1.0 0.0
19.90063559322003 1.0 0.0
20.0 0.7999999999999998 0.0
20.0 0.6000000000013869 0.0
20.0 0.4000000000016644 0.0
20.0 0.2000000000008322 0.0
20.0 0.9000000000000369 0.0
20.0 0.7000000000005904 0.0
20.0 0.5000000000017577 0.0
20.0 0.3000000000012483 0.0
20.0 0.1000000000004161 0.0
19.8 0.0 0.0
19.6 0.0 0.0
19.4 0.0 0.0
19.2 0.0 0.0
19.0 0.0 0.0
18.8 0.0 0.0
18.6 0.0 0.0
18.4 0.0 0.0
18.2 0.0 0.0
18.0 0.0 0.0
17.8 0.0 0.0
17.59999999999999 0.0 0.0
17.4 0.0 0.0
17.2 0.0 0.0
16.99999999999999 0.0 0.0
16.79999999999999 0.0 0.0
16.59999999999999 0.0 0.0
16.4 0.0 0.0
16.2 0.0 0.0
15.99999999999999 0.0 0.0
15.79999999999999 0.0 0.0
15.59999999999999 0.0 0.0
15.4 0.0 0.0
15.2 0.0 0.0
15.0 0.0 0.0
14.79999999999999 0.0 0.0
14.59999999999999 0.0 0.0
14.4 0.0 0.0
14.2 0.0 0.0
13.99999999999999 0.0 0.0
13.8 0.0 0.0
13.59999999999999 0.0 0.0
13.4 0.0 0.0
13.2 0.0 0.0
13.0 0.0 0.0
12.79999999999999 0.0 0.0
12.6 0.0 0.0
12.4 0.0 0.0
12.2 0.0 0.0
11.99999999999999 0.0 0.0
11.8 0.0 0.0
11.6 0.0 0.0
11.4 0.0 0.0
11.2 0.0 0.0
11.0 0.0 0.0
10.8 0.0 0.0
10.6 0.0 0.0
10.4 0.0 0.0
10.2 0.0 0.0
9.999999999999998 0.0 0.0
9.799999999999995 0.0 0.0
9.599999999999998 0.0 0.0
9.399999999999997 0.0 0.0
9.199999999999998 0.0 0.0
8.999999999999996 0.0 0.0
8.799999999999997 0.0 0.0
8.599999999999996 0.0 0.0
8.399999999999999 0.0 0.0
8.199999999999996 0.0 0.0
7.999999999999998 0.0 0.0
7.799999999999997 0.0 0.0
7.599999999999998 0.0 0.0
7.399999999999999 0.0 0.0
7.199999999999998 0.0 0.0
6.999999999999995 0.0 0.0
6.799999999999995 0.0 0.0
6.599999999999998 0.0 0.0
6.399999999999997 0.0 0.0
6.199999999999996 0.0 0.0
5.999999999999998 0.0 0.0
5.799999999999999 0.0 0.0
5.599999999999996 0.0 0.0
5.399999999999995 0.0 0.0
5.199999999999996 0.0 0.0
4.999999999999998 0.0 0.0
4.799999999999997 0.0 0.0
4.599999999999998 0.0 0.0
4.399999999999999 0.0 0.0
4.199999999999999 0.0 0.0
3.999999999999996 0.0 0.0
3.799999999999997 0.0 0.0
3.599999999999998 0.0 0.0
3.399999999999999 0.0 0.0
3.199999999999999 0.0 0.0
3.0 0.0 0.0
2.800000000000001 0.0 0.0
2.599999999999998 0.0 0.0
2.399999999999999 0.0 0.0
2.199999999999996 0.0 0.0
1.999999999999996 0.0 0.0
1.800000000000001 0.0 0.0
1.599999999999998 0.0 0.0
1.399999999999999 0.0 0.0
1.200000000000003 0.0 0.0
1.0 0.0 0.0
0.7999999999999972 0.0 0.0
0.5999999999999979 0.0 0.0
0.3999999999999986 0.0 0.0
0.1999999999999993 0.0 0.0
19.90000000000022 0.0 0.0
19.69999999999997 0.0 0.0
19.49999999999987 0.0 0.0
19.30000000000005 0.0 0.0
19.09999999999999 0.0 0.0
18.89999999999987 0.0 0.0
18.7 0.0 0.0
18.49999999999999 0.0 0.0
18.30000000000001 0.0 0.0
18.09999999999987 0.0 0.0
17.90000000000013 0.0 0.0
17.7 0.0 0.0
17.49999999999987 0.0 0.0
17.30000000000025 0.0 0.0
17.10000000000001 0.0 0.0
16.90000000000005 0.0 0.0
16.70000000000003 0.0 0.0
16.50000000000006 0.0 0.0
16.29999999999997 0.0 0.0
16.09999999999999 0.0 0.0
15.89999999999987 0.0 0.0
15.69999999999999 0.0 0.0
15.49999999999999 0.0 0.0
15.3 0.0 0.0
15.10000000000003 0.0 0.0
14.90000000000005 0.0 0.0
14.69999999999992 0.0 0.0
14.49999999999996 0.0 0.0
14.29999999999999 0.0 0.0
14.10000000000008 0.0 0.0
13.89999999999988 0.0 0.0
13.70000000000003 0.0 0.0
13.50000000000004 0.0 0.0
13.29999999999992 0.0 0.0
13.09999999999995 0.0 0.0
12.90000000000016 0.0 0.0
12.7 0.0 0.0
12.49999999999986 0.0 0.0
12.30000000000003 0.0 0.0
12.10000000000016 0.0 0.0
11.90000000000005 0.0 0.0
11.69999999999994 0.0 0.0
11.49999999999993 0.0 0.0
11.30000000000005 0.0 0.0
11.0999999999999 0.0 0.0
10.90000000000004 0.0 0.0
10.69999999999995 0.0 0.0
10.50000000000012 0.0 0.0
10.29999999999999 0.0 0.0
10.09999999999993 0.0 0.0
9.900000000000077 0.0 0.0
9.699999999999969 0.0 0.0
9.499999999999982 0.0 0.0
9.299999999999969 0.0 0.0
9.100000000000108 0.0 0.0
8.899999999999972 0.0 0.0
8.699999999999958 0.0 0.0
8.499999999999998 0.0 0.0
8.30000000000003 0.0 0.0
8.099999999999977 0.0 0.0
7.899999999999974 0.0 0.0
7.700000000000166 0.0 0.0
7.499999999999854 0.0 0.0
7.299999999999997 0.0 0.0
7.100000000000019 0.0 0.0
6.900000000000002 0.0 0.0
6.699999999999974 0.0 0.0
6.500000000000037 0.0 0.0
6.299999999999981 0.0 0.0
6.100000000000014 0.0 0.0
5.899999999999949 0.0 0.0
5.700000000000049 0.0 0.0
5.499999999999956 0.0 0.0
5.300000000000118 0.0 0.0
5.100000000000005 0.0 0.0
4.900000000000109 0.0 0.0
4.699999999999982 0.0 0.0
4.499999999999936 0.0 0.0
4.300000000000137 0.0 0.0
4.100000000000012 0.0 0.0
3.899999999999888 0.0 0.0
3.69999999999974 0.0 0.0
3.500000000000046 0.0 0.0
3.299999999999965 0.0 0.0
3.099999999999817 0.0 0.0
2.900000000000066 0.0 0.0
2.699999999999793 0.0 0.0
2.500000000000064 0.0 0.0
2.299999999999823 0.0 0.0
[...]
POINT_DATA 2790
VECTORS vector double
1.0 0.0 0.0
0.0 0.0 0.0
0.0 0.0 0.0
0.0 0.0 0.0
1.54214209201 0.0 0.0
1.0 0.0 0.0
0.0 0.0 0.0
0.0 0.0 0.0
0.0 0.0 0.0
0.0 0.0 0.0
0.0 0.0 0.0
0.0 0.0 0.0
0.0 0.0 0.0
0.0 0.0 0.0
0.0 0.0 0.0
0.0 0.0 0.0
0.0 0.0 0.0
0.0 0.0 0.0
0.0 0.0 0.0
0.0 0.0 0.0
0.0 0.0 0.0
0.0 0.0 0.0
0.0 0.0 0.0
0.0 0.0 0.0
0.0 0.0 0.0
0.0 0.0 0.0
0.0 0.0 0.0
0.0 0.0 0.0
0.0 0.0 0.0
0.0 0.0 0.0
0.0 0.0 0.0
0.0 0.0 0.0
0.0 0.0 0.0
0.0 0.0 0.0
0.0 0.0 0.0
0.0 0.0 0.0
0.0 0.0 0.0
0.0 0.0 0.0
0.0 0.0 0.0
0.0 0.0 0.0
0.0 0.0 0.0
0.0 0.0 0.0
0.0 0.0 0.0
0.0 0.0 0.0
0.0 0.0 0.0
0.0 0.0 0.0
0.0 0.0 0.0
0.0 0.0 0.0
0.0 0.0 0.0
0.0 0.0 0.0
0.0 0.0 0.0
0.0 0.0 0.0
0.0 0.0 0.0
0.0 0.0 0.0
0.0 0.0 0.0
0.0 0.0 0.0
0.0 0.0 0.0
0.0 0.0 0.0
0.0 0.0 0.0
0.0 0.0 0.0
0.0 0.0 0.0
0.0 0.0 0.0
0.0 0.0 0.0
0.0 0.0 0.0
0.0 0.0 0.0
0.0 0.0 0.0
0.0 0.0 0.0
0.0 0.0 0.0
0.0 0.0 0.0
0.0 0.0 0.0
0.0 0.0 0.0
0.0 0.0 0.0
0.0 0.0 0.0
0.0 0.0 0.0
0.0 0.0 0.0
0.0 0.0 0.0
0.0 0.0 0.0
0.0 0.0 0.0
0.0 0.0 0.0
0.0 0.0 0.0
0.0 0.0 0.0
0.0 0.0 0.0
0.0 0.0 0.0
0.0 0.0 0.0
0.0 0.0 0.0
0.0 0.0 0.0
0.0 0.0 0.0
0.0 0.0 0.0
0.0 0.0 0.0
0.0 0.0 0.0
0.0 0.0 0.0
0.0 0.0 0.0
0.0 0.0 0.0
0.0 0.0 0.0
0.0 0.0 0.0
0.0 0.0 0.0
0.0 0.0 0.0
0.0 0.0 0.0
0.0 0.0 0.0
0.0 0.0 0.0
0.0 0.0 0.0
0.0 0.0 0.0
0.0 0.0 0.0
0.0 0.0 0.0
0.0 0.0 0.0
0.0 0.0 0.0
0.0 0.0 0.0
0.0 0.0 0.0
0.0 0.0 0.0
0.0 0.0 0.0
0.0 0.0 0.0
0.0 0.0 0.0
0.0 0.0 0.0
0.0 0.0 0.0
0.0 0.0 0.0
0.0 0.0 0.0
0.0 0.0 0.0
0.0 0.0 0.0
0.0 0.0 0.0
0.0 0.0 0.0
0.0 0.0 0.0
0.0 0.0 0.0
0.0 0.0 0.0
0.0 0.0 0.0
0.0 0.0 0.0
0.0 0.0 0.0
0.0 0.0 0.0
0.0 0.0 0.0
0.0 0.0 0.0
0.0 0.0 0.0
0.0 0.0 0.0
0.0 0.0 0.0
0.0 0.0 0.0
0.0 0.0 0.0
0.0 0.0 0.0
0.0 0.0 0.0
0.0 0.0 0.0
0.0 0.0 0.0
0.0 0.0 0.0
0.0 0.0 0.0
0.0 0.0 0.0
0.0 0.0 0.0
0.0 0.0 0.0
0.0 0.0 0.0
0.0 0.0 0.0
0.0 0.0 0.0
0.0 0.0 0.0
0.0 0.0 0.0
0.0 0.0 0.0
0.0 0.0 0.0
0.0 0.0 0.0
0.0 0.0 0.0
0.0 0.0 0.0
0.0 0.0 0.0
0.0 0.0 0.0
0.0 0.0 0.0
0.0 0.0 0.0
0.0 0.0 0.0
0.0 0.0 0.0
0.0 0.0 0.0
0.0 0.0 0.0
0.0 0.0 0.0
0.0 0.0 0.0
0.0 0.0 0.0
0.0 0.0 0.0
0.0 0.0 0.0
0.0 0.0 0.0
0.0 0.0 0.0
0.0 0.0 0.0
0.0 0.0 0.0
0.0 0.0 0.0
0.0 0.0 0.0
0.0 0.0 0.0
0.0 0.0 0.0
0.0 0.0 0.0
0.0 0.0 0.0
0.0 0.0 0.0
0.0 0.0 0.0
0.0 0.0 0.0
0.0 0.0 0.0
0.0 0.0 0.0
0.0 0.0 0.0
0.0 0.0 0.0
0.0 0.0 0.0
0.0 0.0 0.0
0.0 0.0 0.0
0.0 0.0 0.0
0.0 0.0 0.0
0.0 0.0 0.0
0.0 0.0 0.0
0.0 0.0 0.0
0.0 0.0 0.0
0.0 0.0 0.0
0.0 0.0 0.0
0.0 0.0 0.0
0.0 0.0 0.0
0.0 0.0 0.0
0.0 0.0 0.0
0.0 0.0 0.0
0.0 0.0 0.0
0.0 0.0 0.0
0.0 0.0 0.0
0.0 0.0 0.0
0.0 0.0 0.0
0.0 0.0 0.0
0.5573428452 -1.38594531699e-05 0.0
0.974262081247 -5.69316136159e-05 0.0
1.25520895857 -0.000445446618683 0.0
1.42787009605 -0.000360009892253 0.0
0.284696425482 -0.00044971470267 0.0
0.772191981531 0.00116992931126 0.0
1.12012113956 -0.000233453046161 0.0
1.34418804461 -0.000829879673384 0.0
1.48389501682 -0.000235820119484 0.0
1.54110456166 0.0 0.0
1.54130181949 0.0 0.0
1.54162120755 0.0 0.0
1.54210314258 0.0 0.0
1.54142363287 0.0 0.0
1.54238853308 0.0 0.0
1.54263663176 0.0 0.0
1.542132536 0.0 0.0
1.54268519698 0.0 0.0
1.54276794497 0.0 0.0
1.5422389358 0.0 0.0
1.54273667172 0.0 0.0
1.54272645346 0.0 0.0
1.54213986743 0.0 0.0
1.54111026704 0.0 0.0
1.54094877512 0.0 0.0
1.54177732024 0.0 0.0
1.54043038022 0.0 0.0
1.53959797509 0.0 0.0
1.53956421347 0.0 0.0
1.53716379906 0.0 0.0
1.53516894823 0.0 0.0
1.53410518538 0.0 0.0
1.53089869274 0.0 0.0
1.52837965967 0.0 0.0
1.52709477604 0.0 0.0
1.52381882568 0.0 0.0
1.52133867081 0.0 0.0
1.52008352829 0.0 0.0
1.51673876359 0.0 0.0
1.51411319021 0.0 0.0
1.51267396478 0.0 0.0
1.50908321865 0.0 0.0
1.50616474113 0.0 0.0
1.50445171729 0.0 0.0
1.50053072382 0.0 0.0
1.49727053946 0.0 0.0
1.49526011395 0.0 0.0
1.49062422854 0.0 0.0
1.4867409471 0.0 0.0
1.48438350588 0.0 0.0
1.47979546425 0.0 0.0
1.47558666254 0.0 0.0
1.47285114014 0.0 0.0
1.46788126987 0.0 0.0
1.46326720941 0.0 0.0
1.46015450743 0.0 0.0
1.45487496955 0.0 0.0
1.44996985208 0.0 0.0
1.44643676126 0.0 0.0
1.44079510877 0.0 0.0
1.43562058188 0.0 0.0
1.43174853652 0.0 0.0
1.42868199779 0.0 0.0
1.42216252326 0.0 0.0
1.41554935921 0.0 0.0
1.40984844284 0.0 0.0
1.40511839943 0.0 0.0
1.39889987305 0.0 0.0
1.39306761167 0.0 0.0
1.38864155869 0.0 0.0
1.3821241658 0.0 0.0
1.37593540134 0.0 0.0
1.37127870843 0.0 0.0
1.36444117604 0.0 0.0
1.35802140957 0.0 0.0
1.35303479602 0.0 0.0
1.34593985548 0.0 0.0
1.33927116377 0.0 0.0
1.33376130109 0.0 0.0
1.32859219819 0.0 0.0
1.32032860058 0.0 0.0
1.31334091049 0.0 0.0
1.30568510041 0.0 0.0
1.29725230554 0.0 0.0
1.29007873761 0.0 0.0
1.28105350567 0.0 0.0
1.27217446362 0.0 0.0
1.26407801263 0.0 0.0
1.25612234417 0.0 0.0
1.24696307251 0.0 0.0
1.23817675714 0.0 0.0
1.22936655689 0.0 0.0
1.21967756229 0.0 0.0
1.21010227325 0.0 0.0
1.20028522521 0.0 0.0
1.18990600247 0.0 0.0
1.17924748836 0.0 0.0
1.16797054924 0.0 0.0
1.15643526925 0.0 0.0
1.1441285024 0.0 0.0
1.13051117181 0.0 0.0
1.11628775322 0.0 0.0
1.10056156581 0.0 0.0
1.08224593885 0.0 0.0
1.06267800586 0.0 0.0
1.04138983169 0.0 0.0
1.01887997696 0.0 0.0
1.00360102456 0.0 0.0
1.54153892226 0.0 0.0
1.54061878385 0.0 0.0
1.54216612029 0.0 0.0
1.54095451309 0.0 0.0
1.54107463038 0.0 0.0
1.54149901457 0.0 0.0
1.54317500613 0.0 0.0
1.54175067577 0.0 0.0
1.5417558356 0.0 0.0
1.54334916836 0.0 0.0
1.5418763549 0.0 0.0
1.54182066644 0.0 0.0
1.54333273018 0.0 0.0
1.5417892529 0.0 0.0
1.54178629529 0.0 0.0
1.54050177746 0.0 0.0
1.54158512306 0.0 0.0
1.54130372046 0.0 0.0
1.53942621611 0.0 0.0
1.53979182304 0.0 0.0
1.53846440628 0.0 0.0
1.53548256996 0.0 0.0
1.53479587645 0.0 0.0
1.53251758003 0.0 0.0
1.52885260442 0.0 0.0
1.52785325048 0.0 0.0
1.52547109883 0.0 0.0
1.52177366653 0.0 0.0
1.5208260786 0.0 0.0
1.51842812787 0.0 0.0
1.51460524957 0.0 0.0
1.51350406976 0.0 0.0
1.5108748765 0.0 0.0
1.50676795186 0.0 0.0
1.5054018297 0.0 0.0
1.50247713864 0.0 0.0
1.49807215391 0.0 0.0
1.49632239373 0.0 0.0
1.49292401993 0.0 0.0
1.48786798332 0.0 0.0
1.48527033497 0.0 0.0
1.48225384319 0.0 0.0
1.47686783819 0.0 0.0
1.47389041176 0.0 0.0
1.47049810366 0.0 0.0
1.46470338731 0.0 0.0
1.46135662485 0.0 0.0
1.45761169184 0.0 0.0
1.45152710142 0.0 0.0
1.4478223811 0.0 0.0
1.44369838602 0.0 0.0
1.43730662484 0.0 0.0
1.43333601108 0.0 0.0
1.42899188394 0.0 0.0
1.42454390396 0.0 0.0
1.41854636241 0.0 0.0
1.41175502011 0.0 0.0
1.4071191268 0.0 0.0
1.40200446758 0.0 0.0
1.39517631693 0.0 0.0
1.39041570744 0.0 0.0
1.38541051221 0.0 0.0
1.37806762661 0.0 0.0
1.37313354583 0.0 0.0
1.36784830983 0.0 0.0
1.36028258645 0.0 0.0
1.35505179691 0.0 0.0
1.34945947872 0.0 0.0
1.34171929222 0.0 0.0
1.33611273253 0.0 0.0
1.32997053149 0.0 0.0
1.32352887187 0.0 0.0
1.31619987006 0.0 0.0
1.30885417812 0.0 0.0
1.30091183772 0.0 0.0
1.29310591854 0.0 0.0
1.28426759172 0.0 0.0
1.27612247543 0.0 0.0
1.26758178718 0.0 0.0
1.25993868827 0.0 0.0
1.25098551236 0.0 0.0
1.24212781941 0.0 0.0
1.23355653113 0.0 0.0
1.22407350682 0.0 0.0
1.2145941092 0.0 0.0
1.20497021404 0.0 0.0
1.19478224696 0.0 0.0
1.18446897719 0.0 0.0
1.17340914968 0.0 0.0
1.1620394623 0.0 0.0
1.15035074252 0.0 0.0
1.13716052487 0.0 0.0
1.12336036873 0.0 0.0
1.10862646085 0.0 0.0
1.09124831442 0.0 0.0
1.07244531185 0.0 0.0
1.05234519533 0.0 0.0
1.02984695857 0.0 0.0
1.01055778786 0.0 0.0
0.999755076172 0.0 0.0
1.0 0.0 0.0
1.0 0.0 0.0
1.0 0.0 0.0
1.0 0.0 0.0
1.0 0.0 0.0
1.0 0.0 0.0
1.0 0.0 0.0
1.0 0.0 0.0
1.0 0.0 0.0
1.17200187464 -0.0687693396818 0.0
1.22428744094 -0.0450783037434 0.0
1.22509270792 -0.0309477450427 0.0
1.08495667891 -2.0680457228e-05 0.0
1.12118350579 -7.47957946515e-05 0.0
1.12017903026 1.13643210094e-05 0.0
1.11710408218 9.11051500232e-05 0.0
1.11486086644 8.15742968998e-05 0.0
1.11485285146 -0.000147878934431 0.0
1.11528609921 -0.000686805463641 0.0
1.11662247341 -0.00122005768551 0.0
1.11836190514 -0.00148787364746 0.0
1.12018768031 -0.0016172672817 0.0
1.12218247891 -0.00176337448323 0.0
1.12444614008 -0.00196328424551 0.0
1.07836248761 -0.00199316470554 0.0
1.08178006695 -0.00219182592246 0.0
1.08564624357 -0.00254228767106 0.0
1.08995033077 -0.00286847548832 0.0
1.14716637925 -0.00439298319487 0.0
1.21536794514 -0.0227757054785 0.0
1.11752801229 -0.00445426182308 0.0
1.09481662411 -0.00312152081388 0.0
1.20017779458 -0.0174610108995 0.0
1.125129511 -0.0049819136105 0.0
1.13708404698 -0.00392667260768 0.0
1.18543099482 -0.0138340749907 0.0
1.1338428507 -0.00540237528803 0.0
1.17195621704 -0.011285095516 0.0
1.17288807823 -0.00675078628332 0.0
1.18483385504 -0.0105563516714 0.0
1.14347065097 -0.0044528809074 0.0
1.16027673801 -0.00990808582395 0.0
0.880467641811 -0.000749990622074 0.0
1.2105353177 -0.166492241721 0.0
1.29129526613 -0.0109991375097 0.0
1.28004745714 -0.012861849408 0.0
1.30800683274 -0.00733415961156 0.0
1.26653465251 -0.0151760147587 0.0
1.30818033561 -0.00660346945498 0.0
1.21889791588 -0.0216501199307 0.0
1.24709590682 -0.0180605337214 0.0
1.31004073161 -0.00605282528161 0.0
1.31128028964 -0.00553886537335 0.0
1.31338914591 -0.00462704658474 0.0
1.31386686759 -0.00419026960848 0.0
1.31394062799 -0.00381526667811 0.0
1.31392064911 -0.00337434250495 0.0
1.31371676847 -0.00298116791449 0.0
1.30422755526 -0.00266733618483 0.0
1.30385886873 -0.00232500541813 0.0
1.30373701401 -0.0021059703793 0.0
1.20190969697 -0.056150499943 0.0
1.30359472278 -0.0019441455186 0.0
1.30338725096 -0.00181502802419 0.0
1.30277245129 -0.00142560209768 0.0
1.17803028781 -0.0269235034209 0.0
1.30202394681 -0.000656324147651 0.0
1.12600070878 -0.0290816990836 0.0
1.12973413538 -0.0368168392569 0.0
1.29996907556 -6.58355667112e-05 0.0
1.30005310973 1.3132376303e-05 0.0
0.836595639532 -0.000312884092019 0.0
1.29982623626 3.99026065396e-05 0.0
0.836249501686 -0.000144600131724 0.0
0.955708156196 -0.00699740175951 0.0
0.975627353043 -0.00832968622493 0.0
0.91444369256 -0.00299156673494 0.0
1.07159488458 -0.0189404442254 0.0
0.999963604838 -0.0105646429323 0.0
0.902077702134 -0.00337429452067 0.0
1.03088087104 -0.0139761455852 0.0
0.891842197789 -0.00314405402714 0.0
0.882767371364 -0.00273398813658 0.0
0.874860020032 -0.00204061427439 0.0
0.868516282942 -0.00213079018129 0.0
0.862890156613 -0.00192480030305 0.0
0.857814134091 -0.00169686503373 0.0
0.853390089073 -0.00150320371751 0.0
0.849589161727 -0.00124020487343 0.0
0.846145331124 -0.00118686465464 0.0
0.843127772374 -0.0010775596835 0.0
0.840330773152 -0.000995511196711 0.0
0.837826582652 -0.000882283110147 0.0
0.835886423337 -0.000630149331288 0.0
1.3040269744 4.34781778797e-05 0.0
0.83485519184 -0.000288179144434 0.0
0.834611834477 -9.58903938112e-05 0.0
0.834769634833 2.73218477639e-05 0.0
0.834943205337 4.96606243795e-06 0.0
1.32046201346 -4.37539061607e-05 0.0
1.03251978141 -0.0374926715078 0.0
1.32540356304 1.63898220153e-06 0.0
1.31328317746 -0.00508691501718 0.0
1.31025677913 -0.00862307810361 0.0
1.30208673217 -0.00979047878019 0.0
1.32540135468 -0.00539236903315 0.0
0.817887949453 -0.0033024386038 0.0
0.858977258477 -0.00224348472513 0.0
0.875209852171 -0.00357265269569 0.0
0.884771362943 -0.00740280850266 0.0
1.16221593314 -0.0668918014853 0.0
1.01498949382 -0.0250893914626 0.0
1.32756179273 -0.000183720033109 0.0
1.37780991748 -0.002718934002 0.0
1.37543751098 -0.00305258882386 0.0
1.13925123337 -0.0215345897618 0.0
1.36673652454 -0.00258376748264 0.0
1.07492832263 -0.02895546551 0.0
1.37247693476 -0.00342804112289 0.0
1.36811839915 -0.00229986360798 0.0
1.36937365189 -0.00209377358555 0.0
1.36432145231 -0.00381983628153 0.0
0.92576658357 -0.0144458032456 0.0
1.3705920375 -0.00196462837256 0.0
1.36103587873 -0.00411354010476 0.0
1.3714986198 -0.00180993296046 0.0
1.37173357981 -0.00124450728197 0.0
1.18575334875 -0.0175466622755 0.0
1.37165017948 -0.000446744865891 0.0
1.36212997435 -3.71305934929e-05 0.0
1.40681480102 2.44186692683e-05 0.0
0.610003028246 0.000131442531999 0.0
1.35137695638 -0.00498597592385 0.0
1.40362677564 -2.38962466879e-06 0.0
0.625753854371 0.000151939819234 0.0
0.583704453855 0.000530567421212 0.0
1.40356955939 1.2157615831e-05 0.0
0.607564233342 0.000425574348366 0.0
1.34732156822 -0.00528651711532 0.0
1.22172807492 -0.0149194690911 0.0
0.607006999879 0.000413104932425 0.0
0.606743132302 0.000335509584681 0.0
0.606914382691 0.000185570717166 0.0
0.607894207082 5.1488096046e-05 0.0
1.34104457922 -0.00570215533542 0.0
1.25099715375 -0.0128860551779 0.0
0.609590005982 -4.25885330405e-06 0.0
0.611681299251 -2.30885530937e-05 0.0
0.614010426744 -6.3988287255e-05 0.0
0.616498859414 -9.28347596885e-05 0.0
0.619954685187 -0.000318389577965 0.0
1.33302505108 -0.00617460352313 0.0
1.27397774734 -0.0112360988028 0.0
0.623263973327 -0.000401535118359 0.0
0.627112022407 -0.000518055346136 0.0
0.494096618838 -0.00036745543092 0.0
0.631572815293 -0.000615483477414 0.0
0.81393134535 -0.00750251430109 0.0
0.654796469086 -0.000811302189724 0.0
0.775986770787 -0.00529437737228 0.0
0.662800106004 -0.00100666397761 0.0
0.636293641358 -0.00069617000003 0.0
0.747866870598 -0.00397728779521 0.0
0.671126870626 -0.00087041763467 0.0
0.725953786482 -0.00301063856885 0.0
0.51602201279 0.00041801472591 0.0
0.602414011684 -0.00210941968096 0.0
0.53778654156 -0.000204828899328 0.0
1.32386468159 -0.00641751562437 0.0
1.29242974715 -0.00989352803671 0.0
1.30542604949 -0.0091066899429 0.0
1.32856877105 -0.00705251403357 0.0
1.35504348295 -0.00480031648247 0.0
1.36328325474 -0.00437409787476 0.0
0.622651538142 -0.0027274851934 0.0
0.837681521422 -0.00772114338463 0.0
1.40541428271 -8.29376601355e-05 0.0
1.03241257255 -0.0528539883528 0.0
1.11615041123 -0.00032419066355 0.0
1.18279767583 -0.000229909074866 0.0
1.0412054063 -0.0209592362415 0.0
0.504451036462 -2.92059022437e-05 0.0
1.10767857561 -0.0825571733122 0.0
0.984324197224 -0.0592636647802 0.0
0.553181278875 -0.00162641747912 0.0
1.42098067301 -0.00229368596212 0.0
1.41750194476 -0.00265075771503 0.0
1.42318457638 -0.00190411353756 0.0
1.41259274483 -0.00295556342981 0.0
1.28524518689 -0.307603811808 0.0
1.40647679525 -0.00327105777489 0.0
1.42644592589 -0.00169197690159 0.0
1.40027693899 -0.00351576016277 0.0
1.42942708478 -0.00153526890641 0.0
1.43223588484 -0.00147411352893 0.0
1.19686213546 -0.0107241225896 0.0
1.37144298288 -0.00438480419543 0.0
1.1086578738 -0.0166804057439 0.0
1.36169311097 -0.00470536924467 0.0
1.23078788918 -0.00937424196766 0.0
1.43462856257 -0.00136172977384 0.0
1.35080669522 -0.00501515785404 0.0
1.25942386536 -0.00831143072117 0.0
1.1568974577 -0.0127445979638 0.0
1.28367390601 -0.00743028702537 0.0
1.43604154545 -0.000794957425652 0.0
1.43531829314 -0.000116442599593 0.0
1.4343348612 0.000123056977156 0.0
1.4314421675 0.000311145338019 0.0
1.43285366936 0.000263606833084 0.0
1.43410866934 8.7349069973e-05 0.0
1.14842936735 -0.00432682664345 0.0
0.721105568931 -0.00912643565072 0.0
0.771459547968 -0.014854361876 0.0
0.832996638757 -0.0212538101693 0.0
0.690158915846 -0.00801100034808 0.0
0.472828268815 -0.000405955457385 0.0
0.472619630148 -0.00036574448918 0.0
0.472519336944 -0.00040021805672 0.0
1.19729719126 -0.00839478114546 0.0
0.472732676933 -0.000484498161894 0.0
0.473601170842 -0.000594404430077 0.0
0.475120475665 -0.000656036837866 0.0
1.12024680109 0.000303709710152 0.0
1.20225325598 -0.0106951670877 0.0
0.477011410014 -0.000680716323667 0.0
1.12053960021 -1.98247348249e-05 0.0
0.479100442702 -0.000717526908754 0.0
0.481393543846 -0.00080364757777 0.0
0.483693732648 -0.000416961826299 0.0
0.48649567627 -0.000491647729601 0.0
1.10746900027 0.000132722600354 0.0
0.489778235631 -0.00057148760872 0.0
1.10713036099 0.000623057494371 0.0
0.481020385329 -0.000350080457224 0.0
0.493577121173 -0.000655542491162 0.0
1.10681920427 0.000385182350302 0.0
0.483104388011 -0.000450176122271 0.0
1.1074719251 -3.67503247918e-05 0.0
0.479732532506 -0.00073708705149 0.0
0.497862549648 -0.000754491944212 0.0
1.10855147893 -0.000623752453677 0.0
0.480443925964 -0.000354029903952 0.0
0.487900966823 -0.000287336901446 0.0
1.11021306041 -0.000977009035267 0.0
0.663632845105 -0.00702293641976 0.0
1.11198844918 -0.00111519820117 0.0
1.11391407392 -0.00123813852699 0.0
0.515490291055 -0.000747138822221 0.0
1.11598391051 -0.00138938383859 0.0
1.11573707725 -0.00172658227393 0.0
1.22603908571 -0.0264543104847 0.0
0.628450849461 -0.00467796125525 0.0
0.522162123626 -0.00115180646133 0.0
1.11667137754 -0.00183411141993 0.0
1.12014623548 -0.00217326895096 0.0
0.60313326651 -0.0036186015413 0.0
0.529377949373 -0.00120798376324 0.0
1.1240631494 -0.00250323080888 0.0
0.583819617061 -0.00291366088347 0.0
0.511825197768 -0.0004773897965 0.0
1.12839673075 -0.00282951208014 0.0
1.13052422961 -0.00316277312028 0.0
0.554326568498 -0.00211441100045 0.0
1.14233997163 -0.0047917210325 0.0
1.14917037517 -0.00413706121667 0.0
1.15589026125 -0.00455567174086 0.0
1.21880613031 -0.0204728921262 0.0
1.16334706601 -0.00504439658908 0.0
1.20935355579 -0.0163767838393 0.0
1.16820119689 -0.00562936236418 0.0
1.19970522243 -0.0134346295004 0.0
1.18726015912 -0.0113594007896 0.0
1.22246849177 -0.0385218883871 0.0
1.20379363172 -0.0528146698943 0.0
1.18677894491 -0.0580709355729 0.0
1.18515665962 -0.00979460115131 0.0
1.2256804757 -0.0356255829763 0.0
1.22424138267 -0.0267848526994 0.0
1.19517181376 -0.0119897901499 0.0
1.15947048033 -0.00690348192213 0.0
1.20626293835 -0.0150853410744 0.0
1.15083065581 -0.00642829023355 0.0
1.21694794336 -0.0195814186897 0.0
1.1438356729 -0.00589243451642 0.0
0.57948921342 -0.00217523378627 0.0
1.14383710707 -0.00508427276651 0.0
0.598741841806 -0.00301441010071 0.0
0.538717694256 -0.00116930436534 0.0
0.666035597253 -0.00634909864738 0.0
1.12403018548 -0.0043575593676 0.0
0.620251668796 -0.00381215872519 0.0
0.536013045001 -0.00147271416106 0.0
1.11990043246 -0.00413199740771 0.0
1.11583078551 -0.00376347119187 0.0
0.648826196572 -0.00502155248813 0.0
0.52899583116 -0.00137456217528 0.0
1.11215266104 -0.00338283177421 0.0
1.43038212622 -0.000189039644896 0.0
1.1088450301 -0.00306056434277 0.0
1.11945966921 -0.00248730660079 0.0
0.499410032499 -0.000221665710904 0.0
1.11768642265 -0.0022856342834 0.0
1.11577171186 -0.00213176849139 0.0
1.11401586063 -0.00200637782982 0.0
1.11235230834 -0.0018207282778 0.0
1.11089469038 -0.00138154541262 0.0
1.11018596189 -0.000799615388879 0.0
1.10974563334 -0.000561107000182 0.0
1.11246073711 3.17479436089e-05 0.0
1.11061481249 -3.29755325586e-06 0.0
1.11141126198 -0.000267431676385 0.0
1.10856176663 -0.000682239000004 0.0
1.38049033761 -0.00410550931978 0.0
1.43354770456 -0.000145991576662 0.0
0.509357330259 -0.00114630616965 0.0
0.500177402378 -0.00114172095238 0.0
0.49601487466 -0.00103449395909 0.0
0.492370599667 -0.000963824367514 0.0
0.489222371694 -0.000918301568851 0.0
1.43414919834 -9.99888288947e-05 0.0
0.486711145999 -0.000518247394327 0.0
0.484345399106 -0.000592917185244 0.0
0.482114365546 -0.000546786633114 0.0
0.480087971633 -0.000523429510499 0.0
0.478295473519 -0.000494080860591 0.0
0.47698010789 -0.000412524707488 0.0
1.43524706495 -0.000657302983506 0.0
0.476369019981 -0.000283712209741 0.0
0.476300283278 -0.000210352165677 0.0
0.476488194822 -0.000181815422715 0.0
0.480006448714 0.000142624933177 0.0
1.43423552351 -0.00136690284487 0.0
1.43213281938 -0.00164194459286 0.0
1.31146258198 -0.0074126029104 0.0
1.42939358137 -0.00168511599225 0.0
1.33224757032 -0.00532307076791 0.0
0.882310495931 -0.000145479079408 0.0
1.42645617049 -0.00181588614457 0.0
1.00564130883 -0.0107260215778 0.0
1.0837758766 -0.0192327744401 0.0
1.43029499092 -0.000154980767212 0.0
1.42330180389 -0.00201191771762 0.0
1.22423386577 -0.101061058959 0.0
1.42003663429 -0.00223542087167 0.0
1.43122572476 -0.00194471315675 0.0
1.38621580696 -0.00354731669182 0.0
1.42554990734 -0.00219983975201 0.0
1.41897383461 -0.00247498627878 0.0
1.42897141536 -0.000281242360211 0.0
1.41121537314 -0.00273075680712 0.0
1.40335385718 -0.00282139085251 0.0
1.13510825603 -0.0116083290765 0.0
1.17752334692 -0.00951661836138 0.0
1.37867655909 -0.00338663312969 0.0
1.34407129457 -0.00403819739545 0.0
1.29273164292 -0.00608304756268 0.0
1.36826450985 -0.00362451718219 0.0
1.2131652831 -0.00841588911211 0.0