# vtk DataFile Version 2.0
2D Simulation Python
ASCII
DATASET UNSTRUCTURED_GRID
FIELD FieldData 1
NODES 1 2 int
2790 1289

POINTS 2790 double
0.0 1.0 0.0
1.725 1.0 0.0
8.275 1.0 0.0
20.0 1.0 0.0
20.0 0.0 0.0
0.0 0.0 0.0
0.1916666666663293 1.0 0.0
0.3833333333324708 1.0 0.0
0.574999999998553 1.0 0.0
0.7666666666645966 1.0 0.0
0.9583333333312576 1.0 0.0
1.149999999998384 1.0 0.0
1.341666666665662 1.0 0.0
1.533333333332819 1.0 0.0
0.0958333333331406 1.0 0.0
0.2874999999994247 1.0 0.0
0.4791666666655395 1.0 0.0
0.6708333333315728 1.0 0.0
0.8624999999976626 1.0 0.0
1.054166666664886 1.0 0.0
1.245833333332057 1.0 0.0
1.437499999999343 1.0 0.0
1.629166666666455 1.0 0.0
1.92348484848444 1.0 0.0
2.121969696968978 1.0 0.0
2.320454545453434 1.0 0.0
2.518939393937826 1.0 0.0
2.717424242422235 1.0 0.0
2.915909090906411 1.0 0.0
3.1143939393908 1.0 0.0
3.312878787875129 1.0 0.0
3.511363636359531 1.0 0.0
3.709848484843827 1.0 0.0
3.90833333332816 1.0 0.0
4.106818181812215 1.0 0.0
4.305303030296804 1.0 0.0
4.503787878781365 1.0 0.0
4.702272727265711 1.0 0.0
4.900757575750005 1.0 0.0
5.099242424235156 1.0 0.0
5.297727272720327 1.0 0.0
5.496212121205663 1.0 0.0
5.694696969690998 1.0 0.0
5.89318181817668 1.0 0.0
6.09166666666213 1.0 0.0
6.290151515147423 1.0 0.0
6.488636363633031 1.0 0.0
6.687121212118713 1.0 0.0
6.885606060604342 1.0 0.0
7.084090909089381 1.0 0.0
7.282575757574369 1.0 0.0
7.481060606059355 1.0 0.0
7.679545454544343 1.0 0.0
7.878030303029329 1.0 0.0
8.076515151514705 1.0 0.0
1.824242424242199 1.0 0.0
2.022727272726695 1.0 0.0
2.221212121211181 1.0 0.0
2.41969696969563 1.0 0.0
2.618181818180092 1.0 0.0
2.816666666664316 1.0 0.0
3.015151515148624 1.0 0.0
3.213636363633039 1.0 0.0
3.412121212117267 1.0 0.0
3.610606060601583 1.0 0.0
3.809090909085975 1.0 0.0
4.007575757570153 1.0 0.0
4.206060606054539 1.0 0.0
4.404545454539001 1.0 0.0
4.603030303023853 1.0 0.0
4.801515151507715 1.0 0.0
4.999999999992074 1.0 0.0
5.198484848477777 1.0 0.0
5.396969696963081 1.0 0.0
5.595454545448261 1.0 0.0
5.793939393933949 1.0 0.0
5.992424242419331 1.0 0.0
6.190909090904785 1.0 0.0
6.389393939390224 1.0 0.0
6.587878787875795 1.0 0.0
6.786363636361617 1.0 0.0
6.984848484846598 1.0 0.0
7.183333333331875 1.0 0.0
7.381818181816625 1.0 0.0
7.580303030301849 1.0 0.0
7.778787878786936 1.0 0.0
7.977272727272114 1.0 0.0
8.175757575757618 1.0 0.0
8.473728813558951 1.0 0.0
8.672457627118133 1.0 0.0
8.871186440676855 1.0 0.0
9.069915254236154 1.0 0.0
9.268644067794812 1.0 0.0
9.467372881354057 1.0 0.0
9.666101694912944 1.0 0.0
9.864830508471961 1.0 0.0
10.06355932203108 1.0 0.0
10.26228813558986 1.0 0.0
10.46101694914916 1.0 0.0
10.65974576270777 1.0 0.0
10.85847457626706 1.0 0.0
11.05720338982589 1.0 0.0
11.25593220338497 1.0 0.0
11.45466101694402 1.0 0.0
11.65338983050287 1.0 0.0
11.85211864406215 1.0 0.0
12.05084745762035 1.0 0.0
12.24957627117938 1.0 0.0
12.44830508473794 1.0 0.0
12.64703389829659 1.0 0.0
12.84576271185557 1.0 0.0
13.04449152541379 1.0 0.0
13.24322033897301 1.0 0.0
13.44194915253121 1.0 0.0
13.6406779660903 1.0 0.0
13.83940677964874 1.0 0.0
14.03813559320751 1.0 0.0
14.23686440676681 1.0 0.0
14.43559322032663 1.0 0.0
14.63432203388679 1.0 0.0
14.8330508474463 1.0 0.0
15.0317796610067 1.0 0.0
15.23050847456608 1.0 0.0
15.42923728812645 1.0 0.0
15.62796610168606 1.0 0.0
15.82669491524602 1.0 0.0
16.02542372880584 1.0 0.0
16.22415254236431 1.0 0.0
16.42288135592496 1.0 0.0
16.62161016948498 1.0 0.0
16.82033898304518 1.0 0.0
17.01906779660567 1.0 0.0
17.2177966101654 1.0 0.0
17.41652542372565 1.0 0.0
17.61525423728425 1.0 0.0
17.81398305084494 1.0 0.0
18.01271186440355 1.0 0.0
18.21144067796387 1.0 0.0
18.41016949152309 1.0 0.0
18.6088983050827 1.0 0.0
18.80762711864282 1.0 0.0
19.00635593220153 1.0 0.0
19.20508474576211 1.0 0.0
19.40381355932072 1.0 0.0
19.60254237288117 1.0 0.0
19.80127118644013 1.0 0.0
8.374364406779554 1.0 0.0
8.573093220338519 1.0 0.0
8.771822033897509 1.0 0.0
8.970550847456504 1.0 0.0
9.169279661015429 1.0 0.0
9.368008474574502 1.0 0.0
9.566737288133496 1.0 0.0
9.765466101692677 1.0 0.0
9.964194915251602 1.0 0.0
10.16292372881015 1.0 0.0
10.36165254236967 1.0 0.0
10.56038135592849 1.0 0.0
10.75911016948728 1.0 0.0
10.95783898304648 1.0 0.0
11.15656779660554 1.0 0.0
11.35529661016447 1.0 0.0
11.55402542372345 1.0 0.0
11.75275423728253 1.0 0.0
11.95148305084111 1.0 0.0
12.15021186439983 1.0 0.0
12.34894067795883 1.0 0.0
12.54766949151722 1.0 0.0
12.74639830507616 1.0 0.0
12.94512711863486 1.0 0.0
13.14385593219357 1.0 0.0
13.34258474575207 1.0 0.0
13.54131355931069 1.0 0.0
13.7400423728695 1.0 0.0
13.93877118642822 1.0 0.0
14.13749999998697 1.0 0.0
14.33622881354686 1.0 0.0
14.53495762710678 1.0 0.0
14.73368644066656 1.0 0.0
14.93241525422655 1.0 0.0
15.13114406778625 1.0 0.0
15.32987288134641 1.0 0.0
15.52860169490635 1.0 0.0
15.7273305084661 1.0 0.0
15.9260593220261 1.0 0.0
16.12478813558534 1.0 0.0
16.32351694914468 1.0 0.0
16.52224576270527 1.0 0.0
16.72097457626511 1.0 0.0
16.91970338982543 1.0 0.0
17.11843220338561 1.0 0.0
17.31716101694539 1.0 0.0
17.51588983050497 1.0 0.0
17.71461864406449 1.0 0.0
17.91334745762401 1.0 0.0
18.11207627118383 1.0 0.0
18.31080508474307 1.0 0.0
18.50953389830311 1.0 0.0
18.70826271186271 1.0 0.0
18.90699152542239 1.0 0.0
19.10572033898203 1.0 0.0
19.30444915254171 1.0 0.0
19.50317796610107 1.0 0.0
19.70190677966065 1.0 0.0
19.90063559322003 1.0 0.0
20.0 0.7999999999999998 0.0
20.0 0.6000000000013869 0.0
20.0 0.4000000000016644 0.0
20.0 0.2000000000008322 0.0
20.0 0.9000000000000369 0.0
20.0 0.7000000000005904 0.0
20.0 0.5000000000017577 0.0
20.0 0.3000000000012483 0.0
20.0 0.1000000000004161 0.0
19.8 0.0 0.0
19.6 0.0 0.0
19.4 0.0 0.0
19.2 0.0 0.0
19.0 0.0 0.0
18.8 0.0 0.0
18.6 0.0 0.0
18.4 0.0 0.0
18.2 0.0 0.0
18.0 0.0 0.0
17.8 0.0 0.0
17.59999999999999 0.0 0.0
17.4 0.0 0.0
17.2 0.0 0.0
16.99999999999999 0.0 0.0
16.79999999999999 0.0 0.0
16.59999999999999 0.0 0.0
16.4 0.0 0.0
16.2 0.0 0.0
15.99999999999999 0.0 0.0
15.79999999999999 0.0 0.0
15.59999999999999 0.0 0.0
15.4 0.0 0.0
15.2 0.0 0.0
15.0 0.0 0.0
14.79999999999999 0.0 0.0
14.59999999999999 0.0 0.0
14.4 0.0 0.0
14.2 0.0 0.0
13.99999999999999 0.0 0.0
13.8 0.0 0.0
13.59999999999999 0.0 0.0
13.4 0.0 0.0
13.2 0.0 0.0
13.0 0.0 0.0
12.79999999999999 0.0 0.0
12.6 0.0 0.0
12.4 0.0 0.0
12.2 0.0 0.0
11.99999999999999 0.0 0.0
11.8 0.0 0.0
11.6 0.0 0.0
11.4 0.0 0.0
11.2 0.0 0.0
11.0 0.0 0.0
10.8 0.0 0.0
10.6 0.0 0.0
10.4 0.0 0.0
10.2 0.0 0.0
9.999999999999998 0.0 0.0
9.799999999999995 0.0 0.0
9.599999999999998 0.0 0.0
9.399999999999997 0.0 0.0
9.199999999999998 0.0 0.0
8.999999999999996 0.0 0.0
8.799999999999997 0.0 0.0
8.599999999999996 0.0 0.0
8.399999999999999 0.0 0.0
8.199999999999996 0.0 0.0
7.999999999999998 0.0 0.0
7.799999999999997 0.0 0.0
7.599999999999998 0.0 0.0
7.399999999999999 0.0 0.0
7.199999999999998 0.0 0.0
6.999999999999995 0.0 0.0
6.799999999999995 0.0 0.0
6.599999999999998 0.0 0.0
6.399999999999997 0.0 0.0
6.199999999999996 0.0 0.0
5.999999999999998 0.0 0.0
5.799999999999999 0.0 0.0
5.599999999999996 0.0 0.0
5.399999999999995 0.0 0.0
5.199999999999996 0.0 0.0
4.999999999999998 0.0 0.0
4.799999999999997 0.0 0.0
4.599999999999998 0.0 0.0
4.399999999999999 0.0 0.0
4.199999999999999 0.0 0.0
3.999999999999996 0.0 0.0
3.799999999999997 0.0 0.0
3.599999999999998 0.0 0.0
3.399999999999999 0.0 0.0
3.199999999999999 0.0 0.0
3.0 0.0 0.0
2.800000000000001 0.0 0.0
2.599999999999998 0.0 0.0
2.399999999999999 0.0 0.0
2.199999999999996 0.0 0.0
1.999999999999996 0.0 0.0
1.800000000000001 0.0 0.0
1.599999999999998 0.0 0.0
1.399999999999999 0.0 0.0
1.200000000000003 0.0 0.0
1.0 0.0 0.0
0.7999999999999972 0.0 0.0
0.5999999999999979 0.0 0.0
0.3999999999999986 0.0 0.0
0.1999999999999993 0.0 0.0
19.90000000000022 0.0 0.0
19.69999999999997 0.0 0.0
19.49999999999987 0.0 0.0
19.30000000000005 0.0 0.0
19.09999999999999 0.0 0.0
18.89999999999987 0.0 0.0
18.7 0.0 0.0
18.49999999999999 0.0 0.0
18.30000000000001 0.0 0.0
18.09999999999987 0.0 0.0
17.90000000000013 0.0 0.0
17.7 0.0 0.0
17.49999999999987 0.0 0.0
17.30000000000025 0.0 0.0
17.10000000000001 0.0 0.0
16.90000000000005 0.0 0.0
16.70000000000003 0.0 0.0
16.50000000000006 0.0 0.0
16.29999999999997 0.0 0.0
16.09999999999999 0.0 0.0
15.89999999999987 0.0 0.0
15.69999999999999 0.0 0.0
15.49999999999999 0.0 0.0
15.3 0.0 0.0
15.10000000000003 0.0 0.0
14.90000000000005 0.0 0.0
14.69999999999992 0.0 0.0
14.49999999999996 0.0 0.0
14.29999999999999 0.0 0.0
14.10000000000008 0.0 0.0
13.89999999999988 0.0 0.0
13.70000000000003 0.0 0.0
13.50000000000004 0.0 0.0
13.29999999999992 0.0 0.0
13.09999999999995 0.0 0.0
12.90000000000016 0.0 0.0
12.7 0.0 0.0
12.49999999999986 0.0 0.0
12.30000000000003 0.0 0.0
12.10000000000016 0.0 0.0
11.90000000000005 0.0 0.0
11.69999999999994 0.0 0.0
11.49999999999993 0.0 0.0
11.30000000000005 0.0 0.0
11.0999999999999 0.0 0.0
10.90000000000004 0.0 0.0
10.69999999999995 0.0 0.0
10.50000000000012 0.0 0.0
10.29999999999999 0.0 0.0
10.09999999999993 0.0 0.0
9.900000000000077 0.0 0.0
9.699999999999969 0.0 0.0
9.499999999999982 0.0 0.0
9.299999999999969 0.0 0.0
9.100000000000108 0.0 0.0
8.899999999999972 0.0 0.0
8.699999999999958 0.0 0.0
8.499999999999998 0.0 0.0
8.30000000000003 0.0 0.0
8.099999999999977 0.0 0.0
7.899999999999974 0.0 0.0
7.700000000000166 0.0 0.0
7.499999999999854 0.0 0.0
7.299999999999997 0.0 0.0
7.100000000000019 0.0 0.0
6.900000000000002 0.0 0.0
6.699999999999974 0.0 0.0
6.500000000000037 0.0 0.0
6.299999999999981 0.0 0.0
6.100000000000014 0.0 0.0
5.899999999999949 0.0 0.0
5.700000000000049 0.0 0.0
5.499999999999956 0.0 0.0
5.300000000000118 0.0 0.0
5.100000000000005 0.0 0.0
4.900000000000109 0.0 0.0
4.699999999999982 0.0 0.0
4.499999999999936 0.0 0.0
4.300000000000137 0.0 0.0
4.100000000000012 0.0 0.0
3.899999999999888 0.0 0.0
3.69999999999974 0.0 0.0
3.500000000000046 0.0 0.0
3.299999999999965 0.0 0.0
3.099999999999817 0.0 0.0
2.900000000000066 0.0 0.0
2.699999999999793 0.0 0.0
2.500000000000064 0.0 0.0
2.299999999999823 0.0 0.0
[...]
POINT_DATA 2790
VECTORS vector double
1.0 0.0 0.0
0.0 0.0 0.0
0.0 0.0 0.0
0.0 0.0 0.0
1.58904913734 0.0 0.0
1.0 0.0 0.0
0.0 0.0 0.0
0.0 0.0 0.0
0.0 0.0 0.0
0.0 0.0 0.0
0.0 0.0 0.0
0.0 0.0 0.0
0.0 0.0 0.0
0.0 0.0 0.0
0.0 0.0 0.0
0.0 0.0 0.0
0.0 0.0 0.0
0.0 0.0 0.0
0.0 0.0 0.0
0.0 0.0 0.0
0.0 0.0 0.0
0.0 0.0 0.0
0.0 0.0 0.0
0.0 0.0 0.0
0.0 0.0 0.0
0.0 0.0 0.0
0.0 0.0 0.0
0.0 0.0 0.0
0.0 0.0 0.0
0.0 0.0 0.0
0.0 0.0 0.0
0.0 0.0 0.0
0.0 0.0 0.0
0.0 0.0 0.0
0.0 0.0 0.0
0.0 0.0 0.0
0.0 0.0 0.0
0.0 0.0 0.0
0.0 0.0 0.0
0.0 0.0 0.0
0.0 0.0 0.0
0.0 0.0 0.0
0.0 0.0 0.0
0.0 0.0 0.0
0.0 0.0 0.0
0.0 0.0 0.0
0.0 0.0 0.0
0.0 0.0 0.0
0.0 0.0 0.0
0.0 0.0 0.0
0.0 0.0 0.0
0.0 0.0 0.0
0.0 0.0 0.0
0.0 0.0 0.0
0.0 0.0 0.0
0.0 0.0 0.0
0.0 0.0 0.0
0.0 0.0 0.0
0.0 0.0 0.0
0.0 0.0 0.0
0.0 0.0 0.0
0.0 0.0 0.0
0.0 0.0 0.0
0.0 0.0 0.0
0.0 0.0 0.0
0.0 0.0 0.0
0.0 0.0 0.0
0.0 0.0 0.0
0.0 0.0 0.0
0.0 0.0 0.0
0.0 0.0 0.0
0.0 0.0 0.0
0.0 0.0 0.0
0.0 0.0 0.0
0.0 0.0 0.0
0.0 0.0 0.0
0.0 0.0 0.0
0.0 0.0 0.0
0.0 0.0 0.0
0.0 0.0 0.0
0.0 0.0 0.0
0.0 0.0 0.0
0.0 0.0 0.0
0.0 0.0 0.0
0.0 0.0 0.0
0.0 0.0 0.0
0.0 0.0 0.0
0.0 0.0 0.0
0.0 0.0 0.0
0.0 0.0 0.0
0.0 0.0 0.0
0.0 0.0 0.0
0.0 0.0 0.0
0.0 0.0 0.0
0.0 0.0 0.0
0.0 0.0 0.0
0.0 0.0 0.0
0.0 0.0 0.0
0.0 0.0 0.0
0.0 0.0 0.0
0.0 0.0 0.0
0.0 0.0 0.0
0.0 0.0 0.0
0.0 0.0 0.0
0.0 0.0 0.0
0.0 0.0 0.0
0.0 0.0 0.0
0.0 0.0 0.0
0.0 0.0 0.0
0.0 0.0 0.0
0.0 0.0 0.0
0.0 0.0 0.0
0.0 0.0 0.0
0.0 0.0 0.0
0.0 0.0 0.0
0.0 0.0 0.0
0.0 0.0 0.0
0.0 0.0 0.0
0.0 0.0 0.0
0.0 0.0 0.0
0.0 0.0 0.0
0.0 0.0 0.0
0.0 0.0 0.0
0.0 0.0 0.0
0.0 0.0 0.0
0.0 0.0 0.0
0.0 0.0 0.0
0.0 0.0 0.0
0.0 0.0 0.0
0.0 0.0 0.0
0.0 0.0 0.0
0.0 0.0 0.0
0.0 0.0 0.0
0.0 0.0 0.0
0.0 0.0 0.0
0.0 0.0 0.0
0.0 0.0 0.0
0.0 0.0 0.0
0.0 0.0 0.0
0.0 0.0 0.0
0.0 0.0 0.0
0.0 0.0 0.0
0.0 0.0 0.0
0.0 0.0 0.0
0.0 0.0 0.0
0.0 0.0 0.0
0.0 0.0 0.0
0.0 0.0 0.0
0.0 0.0 0.0
0.0 0.0 0.0
0.0 0.0 0.0
0.0 0.0 0.0
0.0 0.0 0.0
0.0 0.0 0.0
0.0 0.0 0.0
0.0 0.0 0.0
0.0 0.0 0.0
0.0 0.0 0.0
0.0 0.0 0.0
0.0 0.0 0.0
0.0 0.0 0.0
0.0 0.0 0.0
0.0 0.0 0.0
0.0 0.0 0.0
0.0 0.0 0.0
0.0 0.0 0.0
0.0 0.0 0.0
0.0 0.0 0.0
0.0 0.0 0.0
0.0 0.0 0.0
0.0 0.0 0.0
0.0 0.0 0.0
0.0 0.0 0.0
0.0 0.0 0.0
0.0 0.0 0.0
0.0 0.0 0.0
0.0 0.0 0.0
0.0 0.0 0.0
0.0 0.0 0.0
0.0 0.0 0.0
0.0 0.0 0.0
0.0 0.0 0.0
0.0 0.0 0.0
0.0 0.0 0.0
0.0 0.0 0.0
0.0 0.0 0.0
0.0 0.0 0.0
0.0 0.0 0.0
0.0 0.0 0.0
0.0 0.0 0.0
0.0 0.0 0.0
0.0 0.0 0.0
0.0 0.0 0.0
0.0 0.0 0.0
0.0 0.0 0.0
0.0 0.0 0.0
0.0 0.0 0.0
0.0 0.0 0.0
0.0 0.0 0.0
0.0 0.0 0.0
0.0 0.0 0.0
0.0 0.0 0.0
0.0 0.0 0.0
0.0 0.0 0.0
0.0 0.0 0.0
0.540018462379 1.96520485761e-05 0.0
0.955588348417 -2.85341628402e-05 0.0
1.24953913854 -0.000353317220288 0.0
1.44611009012 -0.000349228667368 0.0
0.275527209692 -0.000235966929486 0.0
0.753644534341 0.00108455591704 0.0
1.10760691275 -8.70353821744e-05 0.0
1.35069356811 -0.000874489557086 0.0
1.51692523795 -0.000269398222999 0.0
1.5880888704 0.0 0.0
1.58793448641 0.0 0.0
1.58782447851 0.0 0.0
1.58767240492 0.0 0.0
1.58633998783 0.0 0.0
1.58638198037 0.0 0.0
1.58548104796 0.0 0.0
1.58348148649 0.0 0.0
1.5824996663 0.0 0.0
1.5809555906 0.0 0.0
1.57852586659 0.0 0.0
1.57720811527 0.0 0.0
1.57537399646 0.0 0.0
1.57278120296 0.0 0.0
1.56986207113 0.0 0.0
1.56771315252 0.0 0.0
1.56657333072 0.0 0.0
1.56351584419 0.0 0.0
1.56111654725 0.0 0.0
1.55978371093 0.0 0.0
1.55647968794 0.0 0.0
1.55383924817 0.0 0.0
1.55226612826 0.0 0.0
1.54868233623 0.0 0.0
1.54575530635 0.0 0.0
1.54392393602 0.0 0.0
1.54004118672 0.0 0.0
1.53680967553 0.0 0.0
1.53470885296 0.0 0.0
1.53051363745 0.0 0.0
1.52696702715 0.0 0.0
1.5245915235 0.0 0.0
1.52008299009 0.0 0.0
1.51622544241 0.0 0.0
1.51359553371 0.0 0.0
1.50878450112 0.0 0.0
1.50463927775 0.0 0.0
1.50178702707 0.0 0.0
1.49636378368 0.0 0.0
1.49172122925 0.0 0.0
1.48863888241 0.0 0.0
1.48344082221 0.0 0.0
1.47862272393 0.0 0.0
1.47533369117 0.0 0.0
1.46992541576 0.0 0.0
1.46488535943 0.0 0.0
1.46139706071 0.0 0.0
1.45582986232 0.0 0.0
1.45069301104 0.0 0.0
1.44692362341 0.0 0.0
1.44118473095 0.0 0.0
1.43594940674 0.0 0.0
1.43191540322 0.0 0.0
1.42882686531 0.0 0.0
1.42236210193 0.0 0.0
1.41577123316 0.0 0.0
1.41004322342 0.0 0.0
1.4052500597 0.0 0.0
1.39902330544 0.0 0.0
1.39314888521 0.0 0.0
1.38867175707 0.0 0.0
1.38216290137 0.0 0.0
1.37592423452 0.0 0.0
1.37123563591 0.0 0.0
1.36444711007 0.0 0.0
1.35796749099 0.0 0.0
1.35295999759 0.0 0.0
1.34591214604 0.0 0.0
1.33924736855 0.0 0.0
1.3336619415 0.0 0.0
1.32849596126 0.0 0.0
1.32020561632 0.0 0.0
1.31326157093 0.0 0.0
1.30560262097 0.0 0.0
1.2971606407 0.0 0.0
1.29001285464 0.0 0.0
1.28100332614 0.0 0.0
1.27215730077 0.0 0.0
1.26409272348 0.0 0.0
1.25605915805 0.0 0.0
1.2469540033 0.0 0.0
1.23824797945 0.0 0.0
1.22934110574 0.0 0.0
1.21968797232 0.0 0.0
1.21016479274 0.0 0.0
1.20019655204 0.0 0.0
1.18984413285 0.0 0.0
1.17919507918 0.0 0.0
1.16782891938 0.0 0.0
1.15635428563 0.0 0.0
1.14403927776 0.0 0.0
1.13031645095 0.0 0.0
1.11620179022 0.0 0.0
1.10048772516 0.0 0.0
1.08215382793 0.0 0.0
1.06274477649 0.0 0.0
1.04122271915 0.0 0.0
1.01890593702 0.0 0.0
1.0039174125 0.0 0.0
1.58843571773 0.0 0.0
1.58745558665 0.0 0.0
1.58858087003 0.0 0.0
1.58702840745 0.0 0.0
1.5864089111 0.0 0.0
1.58602084055 0.0 0.0
1.58663035326 0.0 0.0
1.58388455532 0.0 0.0
1.58239597167 0.0 0.0
1.58239309918 0.0 0.0
1.57909746778 0.0 0.0
1.57723423429 0.0 0.0
1.57690785549 0.0 0.0
1.57340210945 0.0 0.0
1.57135947254 0.0 0.0
1.5681687096 0.0 0.0
1.56730397725 0.0 0.0
1.56513074767 0.0 0.0
1.56163350446 0.0 0.0
1.56059448997 0.0 0.0
1.55818363666 0.0 0.0
1.55444991535 0.0 0.0
1.55318862727 0.0 0.0
1.55050148061 0.0 0.0
1.54647139817 0.0 0.0
1.5449611425 0.0 0.0
1.54198370504 0.0 0.0
1.53763567386 0.0 0.0
1.53586503273 0.0 0.0
1.53258567857 0.0 0.0
1.52790649445 0.0 0.0
1.52586663488 0.0 0.0
1.52228579534 0.0 0.0
1.51727460594 0.0 0.0
1.51498165782 0.0 0.0
1.51113186758 0.0 0.0
1.5058438394 0.0 0.0
1.50324985152 0.0 0.0
1.49901189331 0.0 0.0
1.49318218225 0.0 0.0
1.48987682488 0.0 0.0
1.48616767734 0.0 0.0
1.48016423134 0.0 0.0
1.47664450105 0.0 0.0
1.47273477926 0.0 0.0
1.46651691361 0.0 0.0
1.46279125166 0.0 0.0
1.45870451189 0.0 0.0
1.45233729193 0.0 0.0
1.44843524861 0.0 0.0
1.44413299427 0.0 0.0
1.43767076664 0.0 0.0
1.43362936756 0.0 0.0
1.42917833321 0.0 0.0
1.42468950364 0.0 0.0
1.41877589819 0.0 0.0
1.41196986053 0.0 0.0
1.407290521 0.0 0.0
1.40214799132 0.0 0.0
1.3952900544 0.0 0.0
1.39050113422 0.0 0.0
1.3854411334 0.0 0.0
1.37807142532 0.0 0.0
1.37313451724 0.0 0.0
1.36783134412 0.0 0.0
1.3602532838 0.0 0.0
1.35500777993 0.0 0.0
1.34939234257 0.0 0.0
1.34169532751 0.0 0.0
1.33603148629 0.0 0.0
1.32992034682 0.0 0.0
1.32341921738 0.0 0.0
1.31608279744 0.0 0.0
1.30877450196 0.0 0.0
1.30081269375 0.0 0.0
1.29306787808 0.0 0.0
1.28430415399 0.0 0.0
1.27613554163 0.0 0.0
1.26758364367 0.0 0.0
1.25991271946 0.0 0.0
1.25098360842 0.0 0.0
1.24213803448 0.0 0.0
1.23359294062 0.0 0.0
1.22409689188 0.0 0.0
1.21460891179 0.0 0.0
1.20497003294 0.0 0.0
1.19474058511 0.0 0.0
1.1843873228 0.0 0.0
1.17331656256 0.0 0.0
1.16197448609 0.0 0.0
1.15024781301 0.0 0.0
1.13703272367 0.0 0.0
1.12327552318 0.0 0.0
1.10855744655 0.0 0.0
1.0912158612 0.0 0.0
1.07243890946 0.0 0.0
1.05238803114 0.0 0.0
1.02980051579 0.0 0.0
1.01085073898 0.0 0.0
0.999897318436 0.0 0.0
1.0 0.0 0.0
1.0 0.0 0.0
1.0 0.0 0.0
1.0 0.0 0.0
1.0 0.0 0.0
1.0 0.0 0.0
1.0 0.0 0.0
1.0 0.0 0.0
1.0 0.0 0.0
1.17027914824 -0.0690910122528 0.0
1.22399779094 -0.0452839149815 0.0
1.22578225941 -0.0311499750602 0.0
1.07372059626 -0.000182710466333 0.0
1.11139450589 -0.000528206243154 0.0
1.11141399375 -0.00081261801135 0.0
1.10992166596 -0.00106931390319 0.0
1.10950157639 -0.00127825623349 0.0
1.11122086438 -0.00144830705864 0.0
1.11290846871 -0.00160749032025 0.0
1.1148426931 -0.00176750796737 0.0
1.11706457115 -0.00195959340137 0.0
1.11959311284 -0.00217990458651 0.0
1.1224315003 -0.00242231913532 0.0
1.12556890292 -0.00267515629597 0.0
1.0801070437 -0.00264928401845 0.0
1.08436092509 -0.00280383845878 0.0
1.08887048612 -0.00303922078755 0.0
1.09359413117 -0.00321292920275 0.0
1.15077381189 -0.00450450275103 0.0
1.21709183842 -0.022929628336 0.0
1.12141041489 -0.00453491655892 0.0
1.09869765843 -0.00331970249969 0.0
1.20255449579 -0.0176264584531 0.0
1.12892755345 -0.00501987691705 0.0
1.14068694702 -0.00393462967421 0.0
1.18820510725 -0.0139151561494 0.0
1.13756453969 -0.00547849668333 0.0
1.17503261329 -0.0113219322029 0.0
1.17610217902 -0.00680253939222 0.0
1.18768562694 -0.0105776158666 0.0
1.14696900757 -0.00445411447948 0.0
1.16354654836 -0.009942771563 0.0
0.866192822418 -0.000733702025992 0.0
1.20575150474 -0.161181354133 0.0
1.29184550926 -0.0109243943899 0.0
1.28038455106 -0.0127887665885 0.0
1.30915554115 -0.00736331933485 0.0
1.26654458941 -0.0151175721877 0.0
1.30958019129 -0.00659911672058 0.0
1.21802739885 -0.0214962108467 0.0
1.24667656052 -0.0179975035214 0.0
1.31159848994 -0.00604013844016 0.0
1.31302516403 -0.00557618432121 0.0
1.31545799093 -0.00472506811204 0.0
1.31621587605 -0.0044451242977 0.0
1.31663472767 -0.0042331637236 0.0
1.31704884899 -0.00398612875078 0.0
1.31726564062 -0.00372364018509 0.0
1.30793780961 -0.00349778044036 0.0
1.3076934808 -0.0031936726348 0.0
1.3075644809 -0.0029090308929 0.0
1.2045956324 -0.0561830789129 0.0
1.3072986555 -0.00262436344338 0.0
1.30706159962 -0.00236704753967 0.0
1.30687883195 -0.0021356779229 0.0
1.17688825378 -0.0264903998263 0.0
1.30677168707 -0.0019255539775 0.0
1.13023361268 -0.0292165318577 0.0
1.12849125271 -0.0361969931449 0.0
1.30483072611 -0.00170143218846 0.0
1.3047468949 -0.00158864214319 0.0
0.82283679186 -0.000407122471432 0.0
1.30405039765 -0.00127318390949 0.0
0.823119192902 -0.000440975284075 0.0
0.961133245479 -0.00707071898489 0.0
0.98094075192 -0.00843342856099 0.0
0.920015148279 -0.00304093829937 0.0
1.07638554059 -0.0193216359043 0.0
1.00517432778 -0.0107195271962 0.0
0.907560234827 -0.00342074887678 0.0
1.0359969723 -0.0142321279874 0.0
0.897301900512 -0.00320088605728 0.0
0.888237070903 -0.00283847933459 0.0
0.880064662788 -0.00210575536311 0.0
0.873388860067 -0.00231766270549 0.0
0.867123018289 -0.0022240780231 0.0
0.861165731036 -0.00209400914725 0.0
0.855636643722 -0.00195746516627 0.0
0.850670651867 -0.00172456504251 0.0
0.846031717161 -0.00161924926611 0.0
0.841932761247 -0.00144314185413 0.0
0.838211123721 -0.00129411607249 0.0
0.834871922938 -0.00117236240108 0.0
0.831874411442 -0.00106998930045 0.0
1.30793221236 -0.00082158683856 0.0
0.829175604393 -0.000972970738743 0.0
0.826739079559 -0.000913877165168 0.0
0.82467648009 -0.000751148031658 0.0
0.823002032132 -0.000576403392083 0.0
1.32536022799 -0.000505933801478 0.0
1.03201286176 -0.0361688848935 0.0
1.33087155288 -8.14444641336e-05 0.0
1.31519947838 -0.0051237845789 0.0
1.31104714525 -0.00859832547408 0.0
1.30269518709 -0.00973814611909 0.0
1.32709662305 -0.00538166425237 0.0
0.823652294855 -0.00330222351642 0.0
0.86441659321 -0.0022430036628 0.0
0.881255972388 -0.00360570981215 0.0
0.890770348715 -0.00752888534753 0.0
1.16696954567 -0.0688248818571 0.0
1.02188685243 -0.0255233435054 0.0
1.33306183109 -0.00044961598337 0.0
1.38230672596 -0.00337624167284 0.0
1.37899069636 -0.00363701114289 0.0
1.13855703054 -0.021327905529 0.0
1.3718124307 -0.00336122398051 0.0
1.07446392937 -0.0287532288326 0.0
1.37518724217 -0.00386383144465 0.0
1.37382182018 -0.0030665228109 0.0
1.37552250931 -0.00278897830766 0.0
1.36639642168 -0.00409927999293 0.0
0.932673636186 -0.0148529002988 0.0
1.37704234273 -0.00252234072832 0.0
1.36266006456 -0.00423733871651 0.0
1.37842872563 -0.00227765133651 0.0
1.37972334147 -0.00206030018576 0.0
1.18491770006 -0.0174198125389 0.0
1.38096045014 -0.00185330615647 0.0
1.37175057741 -0.00166956822722 0.0
1.42172850414 -0.00141166704058 0.0
0.598822919347 5.99425780002e-05 0.0
1.35257180074 -0.00499643992712 0.0
1.41904610238 -0.00118174134212 0.0
0.614506862065 -4.35213381061e-05 0.0
0.573992422097 0.000262454463932 0.0
1.41922866001 -0.000767550862601 0.0
0.598726735818 4.47010236413e-05 0.0
1.34830743794 -0.00530286047629 0.0
1.2210813445 -0.0148083716539 0.0
0.600001384041 -7.0494606818e-06 0.0
0.601803233466 -4.5799933929e-05 0.0
0.603831710627 -7.61886272171e-05 0.0
0.606112123392 -0.000105638018808 0.0
1.34187136357 -0.0057157625808 0.0
1.25059393556 -0.0128021905843 0.0
0.608661195013 -0.000149503013328 0.0
0.611528548459 -0.000202297987885 0.0
0.614768608497 -0.000271159588912 0.0
0.61832835615 -0.000316560784278 0.0
0.622965107819 -0.000516883356617 0.0
1.33369212249 -0.00613941482495 0.0
1.27380298991 -0.0111125627591 0.0
0.627405628532 -0.000575406510596 0.0
0.632262491426 -0.000660427015913 0.0
0.502156727351 -0.000521501697412 0.0
0.637506136212 -0.000722977660547 0.0
0.822224205176 -0.00775632709701 0.0
0.661730703015 -0.00086221065516 0.0
0.78381879622 -0.00550209397588 0.0
0.669815730574 -0.00103392630374 0.0
0.642749596482 -0.000733507839395 0.0
0.755460252606 -0.00408564558226 0.0
0.678247925898 -0.000884652821628 0.0
0.733421417974 -0.0030993250156 0.0
0.523950912771 0.00038304787508 0.0
0.610314128484 -0.0021687045071 0.0
0.544844089528 -0.000184728906565 0.0
1.32373309943 -0.00633846559839 0.0
1.29247265054 -0.00984979043173 0.0
1.30551601134 -0.00909358616115 0.0
1.32892821742 -0.00702938882317 0.0
1.35634305672 -0.00475407543112 0.0
1.36459600322 -0.00437796431024 0.0
0.629291926988 -0.00266101656587 0.0
0.844370980219 -0.00778388243581 0.0
1.42213522926 -0.000403799358569 0.0
1.03301875787 -0.0508663740029 0.0
1.10629343794 -0.000436625563881 0.0
1.17547078735 -0.000359024998045 0.0
1.04088140893 -0.0205074506726 0.0
0.495773015677 9.44730988357e-06 0.0
1.10541773245 -0.0812136900442 0.0
0.998738309661 -0.0624093657088 0.0
0.543301775147 -0.00136774742893 0.0
1.42646214531 -0.0028600227382 0.0
1.42162162081 -0.0030966347694 0.0
1.43003174002 -0.00254447736127 0.0
1.41549417481 -0.00327642122018 0.0
1.28322536505 -0.30148445936 0.0
1.40843984357 -0.00346094246079 0.0
1.4346183277 -0.00232891034112 0.0
1.40160415771 -0.00359227833357 0.0
1.43873350155 -0.00211333927837 0.0
1.44244317035 -0.00190632123817 0.0
1.19626942816 -0.0105862112452 0.0
1.37201145206 -0.00436272330194 0.0
1.10807237766 -0.0164637951359 0.0
1.36207944537 -0.0046403951913 0.0
1.23028573161 -0.00929608308059 0.0
1.44578825792 -0.00171318105035 0.0
1.35103219366 -0.00495897292762 0.0
1.25905623381 -0.00821627469788 0.0
1.15620632718 -0.0125749868699 0.0
1.28337883054 -0.00733040706942 0.0
1.44882404952 -0.00153692465042 0.0
1.45034191704 -0.00137942044351 0.0
1.45169547764 -0.00126759230879 0.0
1.45065991864 -0.000962750299127 0.0
1.45375213914 -0.000740115590884 0.0
1.45592617407 -0.00045302085571 0.0
1.15197111368 -0.0043148536232 0.0
0.731587991775 -0.00922359913145 0.0
0.782834263966 -0.0155810164014 0.0
0.844587791485 -0.0215447972661 0.0
0.700314049957 -0.00793371890144 0.0
0.466757273439 -0.000573347444463 0.0
0.46800778601 -0.000583225732802 0.0
0.469603741908 -0.000626832611787 0.0
1.20015261576 -0.00845924629473 0.0
0.471442437393 -0.000646935185359 0.0
0.473487442514 -0.000683303541134 0.0
0.475742571115 -0.00072391187569 0.0
1.11190080303 -0.000429337308457 0.0
1.20490086044 -0.0107031053972 0.0
0.478252884338 -0.000772396713727 0.0
1.11128450122 -0.000342303222435 0.0
0.481068338395 -0.000835349948294 0.0
0.484229285133 -0.000922803933445 0.0
0.487498241239 -0.000563207178283 0.0
0.491265244934 -0.000610872892069 0.0
1.10006053903 -0.000968351470204 0.0
0.495429179415 -0.000668722547646 0.0
1.10141886504 -0.000756666332708 0.0
0.473212465253 -0.000417471444236 0.0
0.499937880203 -0.000721119454055 0.0
1.10286373945 -0.00102880351328 0.0
0.475186070482 -0.000449886836503 0.0
1.10493906518 -0.00115425489543 0.0
0.472463497458 -0.000789198853321 0.0
0.504707217152 -0.000815665649447 0.0
1.10677682099 -0.00130354044744 0.0
0.47298236504 -0.000457662648388 0.0
0.495134445345 -0.000292720282996 0.0
1.10887943926 -0.00147485585327 0.0
0.67319537591 -0.00736634534269 0.0
1.1112630747 -0.00167206771288 0.0
1.11397477913 -0.001900340909 0.0
0.52281461108 -0.000750144716134 0.0
1.11688474973 -0.00213671710283 0.0
1.1174482695 -0.00248039388376 0.0
1.22692160266 -0.0265349093683 0.0
0.637320574185 -0.00491750447391 0.0
0.529633288411 -0.0011542390702 0.0
1.11914981925 -0.00254350604585 0.0
1.12320216468 -0.00276329179184 0.0
0.611551124873 -0.00377114325341 0.0
0.536938480318 -0.00122728703549 0.0
1.1274846707 -0.00292015395835 0.0
0.59201075874 -0.00301379534894 0.0
0.519644777628 -0.000525481397163 0.0
1.13199955943 -0.00308623397884 0.0
1.13412995101 -0.00324088598006 0.0
0.562424218454 -0.00216519819161 0.0
1.14605364162 -0.00483196932046 0.0
1.15273049444 -0.00423659853348 0.0
1.15937726927 -0.00459569820909 0.0
1.22044889873 -0.0205885534908 0.0
1.16672257899 -0.00507816529841 0.0
1.21152562249 -0.0164184816034 0.0
1.17149781166 -0.00569188869101 0.0
1.20222455595 -0.0134664070669 0.0
1.19011702537 -0.0113651141199 0.0
1.2219458269 -0.0381294260917 0.0
1.2023231394 -0.0527657306266 0.0
1.18512425284 -0.056845027969 0.0
1.18791494645 -0.00982665010387 0.0
1.22547897084 -0.0355682307321 0.0
1.22485799325 -0.0268605674111 0.0
1.19769622026 -0.0120221157498 0.0
1.16282589061 -0.00698736457464 0.0
1.20839188105 -0.0151817864227 0.0
1.15432916395 -0.0064880394627 0.0
1.21848329871 -0.0196850921685 0.0
1.14742289343 -0.00595620848665 0.0
0.587534222225 -0.00219007553246 0.0
1.14747508562 -0.0051629778267 0.0
0.606904243146 -0.00304396067624 0.0
0.546397403628 -0.00123638495156 0.0
0.676005777692 -0.00690311995508 0.0
1.12770869659 -0.0044827029057 0.0
0.628669056915 -0.00386261565881 0.0
0.543512504476 -0.00154862460665 0.0
1.12348120175 -0.00443194119159 0.0
1.11913107269 -0.00423863279279 0.0
0.65779336943 -0.00512076379132 0.0
0.536401056628 -0.0014626264383 0.0
1.11498688253 -0.0039830732161 0.0
1.44997040508 -0.00137632285225 0.0
1.11102291538 -0.00373673509972 0.0
1.1209809533 -0.00318388973381 0.0
0.506831016122 -0.000509448280184 0.0
1.11836486792 -0.00292829214307 0.0
1.11561676622 -0.00268397500343 0.0
1.11311964802 -0.00244969231997 0.0
1.11092587128 -0.00224632968582 0.0
1.10901334171 -0.00207282464322 0.0
1.1073588666 -0.00190751712634 0.0
1.10534211977 -0.00184141260274 0.0
1.10342069952 -0.000505120410249 0.0
1.10445009534 -0.00118833371841 0.0
1.10364122085 -0.00115145744146 0.0
1.09867046387 -0.000860723077172 0.0
1.38120033818 -0.00408091370123 0.0
1.45167169671 -0.001473535243 0.0
0.516415059109 -0.00121062984044 0.0
0.506888136815 -0.00123934307586 0.0
0.50213686492 -0.00118649663256 0.0
0.497705502291 -0.00114557317426 0.0
0.493629387018 -0.00109871528769 0.0
1.45007188074 -0.00145401702922 0.0
0.49015536656 -0.000717074845537 0.0
0.486843961916 -0.000755515629271 0.0
0.483789575804 -0.00067918572525 0.0
0.481078110859 -0.000627003202142 0.0
0.478655063541 -0.0005851471868 0.0
0.476475149647 -0.000550254063689 0.0
1.4488443037 -0.00163609373441 0.0
0.474504360297 -0.000509993494533 0.0
0.472712407128 -0.000479440498845 0.0
0.471252655273 -0.000423689983914 0.0
0.473386118998 -9.47613264967e-05 0.0
1.4458655272 -0.00181861784337 0.0
1.44260934313 -0.00200849565822 0.0
1.31128944276 -0.00725259368064 0.0
1.43902667069 -0.00221483162128 0.0
1.3322328051 -0.00528849812559 0.0
0.868477784642 -0.000254754214854 0.0
1.43506572443 -0.00243429663569 0.0
1.00590871882 -0.0108265994925 0.0
1.08340962254 -0.0187317537033 0.0
1.4510465875 -0.00101618487057 0.0
1.4306605031 -0.00264519177669 0.0
1.22164230737 -0.102431301127 0.0
1.42601943021 -0.00283449645182 0.0
1.43603904435 -0.00236626194078 0.0
1.38716912886 -0.00349769107658 0.0
1.42892877587 -0.00252042347498 0.0
1.42122413794 -0.00267235618376 0.0
1.45028762421 -0.000389260491021 0.0
1.41266435892 -0.00284049912784 0.0
1.40434317147 -0.00282109162245 0.0
1.13457033288 -0.011319654574 0.0
1.17692327555 -0.00932798516187 0.0
1.37917426146 -0.00337196172792 0.0
1.3440642944 -0.00396186922975 0.0
1.29237269589 -0.00597949713881 0.0
1.36856876753 -0.00359355939174 0.0
1.21261130198 -0.00824783644619 0.0
1.29059207793 -0.00202126212651 0.0