# vtk DataFile Version 2.0
2D Simulation Python
ASCII
DATASET UNSTRUCTURED_GRID
FIELD FieldData 1
NODES 1 2 int
14968 7299

POINTS 14968 double
0.0 1.0 0.0
1.725 1.0 0.0
8.275 1.0 0.0
10.0 1.0 0.0
10.0 0.0 0.0
0.0 0.0 0.0
0.05948275862057954 1.0 0.0
0.1189655172411507 1.0 0.0
0.1784482758617532 1.0 0.0
0.2379310344823185 1.0 0.0
0.2974137931028384 1.0 0.0
0.3568965517233564 1.0 0.0
0.4163793103438745 1.0 0.0
0.475862068964385 1.0 0.0
0.535344827584889 1.0 0.0
0.5948275862053855 1.0 0.0
0.654310344825882 1.0 0.0
0.7137931034463786 1.0 0.0
0.7732758620668752 1.0 0.0
0.8327586206874149 1.0 0.0
0.8922413793081027 1.0 0.0
0.9517241379289384 1.0 0.0
1.011206896549752 1.0 0.0
1.070689655170612 1.0 0.0
1.130172413791474 1.0 0.0
1.189655172412335 1.0 0.0
1.249137931033183 1.0 0.0
1.308620689654105 1.0 0.0
1.368103448274985 1.0 0.0
1.427586206895818 1.0 0.0
1.487068965516628 1.0 0.0
1.546551724137449 1.0 0.0
1.606034482758285 1.0 0.0
1.665517241379139 1.0 0.0
0.02974137931029072 1.0 0.0
0.08922413793086324 1.0 0.0
0.1487068965514534 1.0 0.0
0.208189655172049 1.0 0.0
0.2676724137925698 1.0 0.0
0.3271551724130939 1.0 0.0
0.3866379310336222 1.0 0.0
0.4461206896541293 1.0 0.0
0.5056034482746439 1.0 0.0
0.5650862068951479 1.0 0.0
0.624568965515645 1.0 0.0
0.6840517241361357 1.0 0.0
0.7435344827566197 1.0 0.0
0.8030172413771515 1.0 0.0
0.8624999999976763 1.0 0.0
0.9219827586185091 1.0 0.0
0.9814655172393557 1.0 0.0
1.040948275860181 1.0 0.0
1.100431034481038 1.0 0.0
1.159913793101895 1.0 0.0
1.219396551722753 1.0 0.0
1.278879310343654 1.0 0.0
1.338362068964579 1.0 0.0
1.397844827585388 1.0 0.0
1.457327586206215 1.0 0.0
1.516810344826985 1.0 0.0
1.576293103447828 1.0 0.0
1.635775862068708 1.0 0.0
1.695258620689603 1.0 0.0
1.784545454545345 1.0 0.0
1.844090909090676 1.0 0.0
1.903636363635991 1.0 0.0
1.963181818181336 1.0 0.0
2.022727272726716 1.0 0.0
2.082272727272112 1.0 0.0
2.141818181817408 1.0 0.0
2.201363636362702 1.0 0.0
2.260909090908037 1.0 0.0
2.320454545453433 1.0 0.0
2.379999999998759 1.0 0.0
2.439545454544053 1.0 0.0
2.499090909089358 1.0 0.0
2.558636363634754 1.0 0.0
2.618181818180109 1.0 0.0
2.677727272725404 1.0 0.0
2.737272727270631 1.0 0.0
2.796818181815906 1.0 0.0
2.856363636361191 1.0 0.0
2.915909090906408 1.0 0.0
2.975454545451703 1.0 0.0
3.034999999997049 1.0 0.0
3.094545454542377 1.0 0.0
3.154090909087591 1.0 0.0
3.21363636363288 1.0 0.0
3.273181818178196 1.0 0.0
3.332727272723555 1.0 0.0
3.392272727268849 1.0 0.0
3.451818181814208 1.0 0.0
3.511363636359524 1.0 0.0
3.570909090904812 1.0 0.0
3.630454545450026 1.0 0.0
3.689999999995355 1.0 0.0
3.749545454540702 1.0 0.0
3.809090909085996 1.0 0.0
3.868636363631291 1.0 0.0
3.928181818176585 1.0 0.0
3.987727272721861 1.0 0.0
4.047272727267021 1.0 0.0
4.106818181812208 1.0 0.0
4.166363636357625 1.0 0.0
4.225909090903122 1.0 0.0
4.285454545448432 1.0 0.0
4.34499999999356 1.0 0.0
4.404545454538917 1.0 0.0
4.464090909084414 1.0 0.0
4.523636363629791 1.0 0.0
4.583181818174936 1.0 0.0
4.642727272720208 1.0 0.0
4.702272727265705 1.0 0.0
4.761818181811142 1.0 0.0
4.821363636356348 1.0 0.0
4.880909090901557 1.0 0.0
4.940454545446997 1.0 0.0
4.999999999992493 1.0 0.0
5.059545454538018 1.0 0.0
5.119090909083717 1.0 0.0
5.17863636362933 1.0 0.0
5.238181818174827 1.0 0.0
5.297727272720321 1.0 0.0
5.357272727265989 1.0 0.0
5.416818181811662 1.0 0.0
5.476363636357158 1.0 0.0
5.535909090902654 1.0 0.0
5.595454545448262 1.0 0.0
5.65499999999396 1.0 0.0
5.714545454539491 1.0 0.0
5.774090909085032 1.0 0.0
5.83363636363093 1.0 0.0
5.893181818176673 1.0 0.0
5.952727272722171 1.0 0.0
6.012272727267668 1.0 0.0
6.071818181813491 1.0 0.0
6.131363636359353 1.0 0.0
6.190909090904849 1.0 0.0
6.250454545450346 1.0 0.0
6.309999999996052 1.0 0.0
6.369545454541951 1.0 0.0
6.429090909087529 1.0 0.0
6.488636363633026 1.0 0.0
6.548181818178611 1.0 0.0
6.60772727272451 1.0 0.0
6.667272727270209 1.0 0.0
6.726818181815705 1.0 0.0
6.786363636361202 1.0 0.0
6.845909090907071 1.0 0.0
6.905454545452889 1.0 0.0
6.964999999998385 1.0 0.0
7.024545454543881 1.0 0.0
7.084090909089378 1.0 0.0
7.143636363634876 1.0 0.0
7.20318181818037 1.0 0.0
7.262727272725868 1.0 0.0
7.322272727271365 1.0 0.0
7.381818181816859 1.0 0.0
7.441363636362357 1.0 0.0
7.500909090907854 1.0 0.0
7.560454545453348 1.0 0.0
7.619999999998846 1.0 0.0
7.679545454544343 1.0 0.0
7.739090909089839 1.0 0.0
7.798636363635335 1.0 0.0
7.858181818180832 1.0 0.0
7.917727272726328 1.0 0.0
7.977272727271824 1.0 0.0
8.036818181817441 1.0 0.0
8.09636363636334 1.0 0.0
8.155909090909008 1.0 0.0
8.215454545454504 1.0 0.0
1.754772727272673 1.0 0.0
1.814318181818009 1.0 0.0
1.873863636363333 1.0 0.0
1.933409090908672 1.0 0.0
1.992954545454031 1.0 0.0
2.052499999999414 1.0 0.0
2.112045454544734 1.0 0.0
2.171590909090055 1.0 0.0
2.231136363635354 1.0 0.0
2.290681818180733 1.0 0.0
2.35022727272609 1.0 0.0
2.409772727271409 1.0 0.0
2.469318181816729 1.0 0.0
2.528863636362083 1.0 0.0
2.588409090907435 1.0 0.0
2.647954545452764 1.0 0.0
2.70749999999803 1.0 0.0
2.767045454543256 1.0 0.0
2.826590909088563 1.0 0.0
2.886136363633805 1.0 0.0
2.945681818179043 1.0 0.0
3.005227272724398 1.0 0.0
3.064772727269736 1.0 0.0
3.124318181814993 1.0 0.0
3.183863636360237 1.0 0.0
3.243409090905498 1.0 0.0
3.302954545450869 1.0 0.0
3.362499999996201 1.0 0.0
3.422045454541534 1.0 0.0
3.481590909086889 1.0 0.0
3.541136363632178 1.0 0.0
3.600681818177425 1.0 0.0
3.660227272722711 1.0 0.0
3.719772727268038 1.0 0.0
3.779318181813342 1.0 0.0
3.838863636358643 1.0 0.0
3.898409090903943 1.0 0.0
3.957954545449228 1.0 0.0
4.017499999994459 1.0 0.0
4.077045454539567 1.0 0.0
4.136590909084866 1.0 0.0
4.196136363630398 1.0 0.0
4.255681818175789 1.0 0.0
4.31522727272101 1.0 0.0
4.374772727266199 1.0 0.0
4.434318181811665 1.0 0.0
4.493863636357126 1.0 0.0
4.55340909090234 1.0 0.0
4.612954545447561 1.0 0.0
4.672499999992919 1.0 0.0
4.732045454538429 1.0 0.0
4.791590909083769 1.0 0.0
4.851136363628941 1.0 0.0
4.910681818174305 1.0 0.0
4.970227272719745 1.0 0.0
5.029772727265215 1.0 0.0
5.089318181810858 1.0 0.0
5.148863636356518 1.0 0.0
5.208409090902078 1.0 0.0
5.267954545447563 1.0 0.0
5.32749999999314 1.0 0.0
5.387045454538812 1.0 0.0
5.446590909084395 1.0 0.0
5.506136363629908 1.0 0.0
5.565681818175434 1.0 0.0
5.625227272721118 1.0 0.0
5.68477272726672 1.0 0.0
5.744318181812282 1.0 0.0
5.803863636357981 1.0 0.0
5.863409090903753 1.0 0.0
5.922954545449448 1.0 0.0
5.98249999999492 1.0 0.0
6.042045454540572 1.0 0.0
6.10159090908641 1.0 0.0
6.161136363632073 1.0 0.0
6.220681818177569 1.0 0.0
6.280227272723183 1.0 0.0
6.339772727268974 1.0 0.0
6.399318181814714 1.0 0.0
6.45886363636027 1.0 0.0
6.518409090905834 1.0 0.0
6.577954545451583 1.0 0.0
6.637499999997363 1.0 0.0
6.697045454542931 1.0 0.0
6.756590909088454 1.0 0.0
6.8161363636342 1.0 0.0
6.875681818179999 1.0 0.0
6.935227272725616 1.0 0.0
6.994772727271133 1.0 0.0
7.054318181816615 1.0 0.0
7.113863636362105 1.0 0.0
7.173409090907585 1.0 0.0
7.232954545453119 1.0 0.0
7.292499999998594 1.0 0.0
7.352045454544166 1.0 0.0
7.411590909089607 1.0 0.0
7.471136363635079 1.0 0.0
7.530681818180621 1.0 0.0
7.590227272726104 1.0 0.0
7.649772727271595 1.0 0.0
7.709318181817098 1.0 0.0
7.768863636362564 1.0 0.0
7.828409090908048 1.0 0.0
7.88795454545358 1.0 0.0
7.947499999999069 1.0 0.0
8.007045454544631 1.0 0.0
8.066590909090369 1.0 0.0
8.126136363636165 1.0 0.0
8.185681818181749 1.0 0.0
8.245227272727199 1.0 0.0
8.334482758620055 1.0 0.0
8.393965517240051 1.0 0.0
8.453448275859904 1.0 0.0
8.51293103448045 1.0 0.0
8.572413793100301 1.0 0.0
8.631896551720153 1.0 0.0
8.6913793103407 1.0 0.0
8.750862068961245 1.0 0.0
8.810344827581792 1.0 0.0
8.869827586202339 1.0 0.0
8.929310344822884 1.0 0.0
8.988793103443431 1.0 0.0
9.048275862063978 1.0 0.0
9.107758620684523 1.0 0.0
9.16724137930507 1.0 0.0
9.226724137925617 1.0 0.0
9.286206896546162 1.0 0.0
9.345689655167401 1.0 0.0
9.405172413788595 1.0 0.0
9.46465517240963 1.0 0.0
9.524137931030667 1.0 0.0
9.583620689651704 1.0 0.0
9.643103448272907 1.0 0.0
9.702586206894148 1.0 0.0
9.762068965515388 1.0 0.0
9.821551724136627 1.0 0.0
9.881034482757867 1.0 0.0
9.940517241378963 1.0 0.0
8.304741379310085 1.0 0.0
8.364224137930028 1.0 0.0
8.423706896549978 1.0 0.0
8.48318965517026 1.0 0.0
8.542672413790376 1.0 0.0
8.602155172410113 1.0 0.0
8.661637931030402 1.0 0.0
8.721120689651029 1.0 0.0
8.78060344827138 1.0 0.0
8.84008620689213 1.0 0.0
8.899568965512502 1.0 0.0
8.959051724133055 1.0 0.0
9.018534482753648 1.0 0.0
9.078017241374363 1.0 0.0
9.137499999994688 1.0 0.0
9.196982758615343 1.0 0.0
9.256465517235805 1.0 0.0
9.315948275856895 1.0 0.0
9.375431034477998 1.0 0.0
9.434913793099138 1.0 0.0
9.494396551720149 1.0 0.0
9.55387931034146 1.0 0.0
9.613362068962203 1.0 0.0
9.672844827583809 1.0 0.0
9.73232758620488 1.0 0.0
9.791810344826095 1.0 0.0
9.851293103447228 1.0 0.0
9.910775862068462 1.0 0.0
9.970258620689481 1.0 0.0
10.0 0.9411764705879904 0.0
10.0 0.882352941175982 0.0
10.0 0.8235294117645425 0.0
10.0 0.764705882353186 0.0
10.0 0.7058823529418295 0.0
10.0 0.6470588235304731 0.0
10.0 0.5882352941191167 0.0
10.0 0.5294117647077601 0.0
10.0 0.4705882352960771 0.0
10.0 0.4117647058840672 0.0
10.0 0.3529411764720576 0.0
10.0 0.2941176470600479 0.0
10.0 0.2352941176480381 0.0
10.0 0.1764705882360285 0.0
10.0 0.1176470588240187 0.0
10.0 0.05882352941200908 0.0
10.0 0.9705882352939621 0.0
10.0 0.9117647058820033 0.0
10.0 0.8529411764702793 0.0
10.0 0.7941176470588772 0.0
10.0 0.7352941176474532 0.0
10.0 0.6764705882361493 0.0
10.0 0.6176470588248275 0.0
10.0 0.5588235294134586 0.0
10.0 0.5000000000020175 0.0
10.0 0.4411764705900721 0.0
10.0 0.3823529411780624 0.0
10.0 0.3235294117660528 0.0
10.0 0.264705882354043 0.0
10.0 0.2058823529420333 0.0
10.0 0.1470588235300236 0.0
10.0 0.0882352941180139 0.0
10.0 0.02941176470600448 0.0
9.940119760479043 0.0 0.0
9.880239520958083 0.0 0.0
9.820359281437126 0.0 0.0
9.760479041916167 0.0 0.0
9.70059880239521 0.0 0.0
9.640718562874252 0.0 0.0
9.580838323353293 0.0 0.0
[...]
POINT_DATA 14968
VECTORS vector double
1.0 0.0 0.0
0.0 0.0 0.0
0.0 0.0 0.0
0.0 0.0 0.0
0.0 0.0 0.0
1.0 0.0 0.0
0.0 0.0 0.0
0.0 0.0 0.0
0.0 0.0 0.0
0.0 0.0 0.0
0.0 0.0 0.0
0.0 0.0 0.0
0.0 0.0 0.0
0.0 0.0 0.0
0.0 0.0 0.0
0.0 0.0 0.0
0.0 0.0 0.0
0.0 0.0 0.0
0.0 0.0 0.0
0.0 0.0 0.0
0.0 0.0 0.0
0.0 0.0 0.0
0.0 0.0 0.0
0.0 0.0 0.0
0.0 0.0 0.0
0.0 0.0 0.0
0.0 0.0 0.0
0.0 0.0 0.0
0.0 0.0 0.0
0.0 0.0 0.0
0.0 0.0 0.0
0.0 0.0 0.0
0.0 0.0 0.0
0.0 0.0 0.0
0.0 0.0 0.0
0.0 0.0 0.0
0.0 0.0 0.0
0.0 0.0 0.0
0.0 0.0 0.0
0.0 0.0 0.0
0.0 0.0 0.0
0.0 0.0 0.0
0.0 0.0 0.0
0.0 0.0 0.0
0.0 0.0 0.0
0.0 0.0 0.0
0.0 0.0 0.0
0.0 0.0 0.0
0.0 0.0 0.0
0.0 0.0 0.0
0.0 0.0 0.0
0.0 0.0 0.0
0.0 0.0 0.0
0.0 0.0 0.0
0.0 0.0 0.0
0.0 0.0 0.0
0.0 0.0 0.0
0.0 0.0 0.0
0.0 0.0 0.0
0.0 0.0 0.0
0.0 0.0 0.0
0.0 0.0 0.0
0.0 0.0 0.0
0.0 0.0 0.0
0.0 0.0 0.0
0.0 0.0 0.0
0.0 0.0 0.0
0.0 0.0 0.0
0.0 0.0 0.0
0.0 0.0 0.0
0.0 0.0 0.0
0.0 0.0 0.0
0.0 0.0 0.0
0.0 0.0 0.0
0.0 0.0 0.0
0.0 0.0 0.0
0.0 0.0 0.0
0.0 0.0 0.0
0.0 0.0 0.0
0.0 0.0 0.0
0.0 0.0 0.0
0.0 0.0 0.0
0.0 0.0 0.0
0.0 0.0 0.0
0.0 0.0 0.0
0.0 0.0 0.0
0.0 0.0 0.0
0.0 0.0 0.0
0.0 0.0 0.0
0.0 0.0 0.0
0.0 0.0 0.0
0.0 0.0 0.0
0.0 0.0 0.0
0.0 0.0 0.0
0.0 0.0 0.0
0.0 0.0 0.0
0.0 0.0 0.0
0.0 0.0 0.0
0.0 0.0 0.0
0.0 0.0 0.0
0.0 0.0 0.0
0.0 0.0 0.0
0.0 0.0 0.0
0.0 0.0 0.0
0.0 0.0 0.0
0.0 0.0 0.0
0.0 0.0 0.0
0.0 0.0 0.0
0.0 0.0 0.0
0.0 0.0 0.0
0.0 0.0 0.0
0.0 0.0 0.0
0.0 0.0 0.0
0.0 0.0 0.0
0.0 0.0 0.0
0.0 0.0 0.0
0.0 0.0 0.0
0.0 0.0 0.0
0.0 0.0 0.0
0.0 0.0 0.0
0.0 0.0 0.0
0.0 0.0 0.0
0.0 0.0 0.0
0.0 0.0 0.0
0.0 0.0 0.0
0.0 0.0 0.0
0.0 0.0 0.0
0.0 0.0 0.0
0.0 0.0 0.0
0.0 0.0 0.0
0.0 0.0 0.0
0.0 0.0 0.0
0.0 0.0 0.0
0.0 0.0 0.0
0.0 0.0 0.0
0.0 0.0 0.0
0.0 0.0 0.0
0.0 0.0 0.0
0.0 0.0 0.0
0.0 0.0 0.0
0.0 0.0 0.0
0.0 0.0 0.0
0.0 0.0 0.0
0.0 0.0 0.0
0.0 0.0 0.0
0.0 0.0 0.0
0.0 0.0 0.0
0.0 0.0 0.0
0.0 0.0 0.0
0.0 0.0 0.0
0.0 0.0 0.0
0.0 0.0 0.0
0.0 0.0 0.0
0.0 0.0 0.0
0.0 0.0 0.0
0.0 0.0 0.0
0.0 0.0 0.0
0.0 0.0 0.0
0.0 0.0 0.0
0.0 0.0 0.0
0.0 0.0 0.0
0.0 0.0 0.0
0.0 0.0 0.0
0.0 0.0 0.0
0.0 0.0 0.0
0.0 0.0 0.0
0.0 0.0 0.0
0.0 0.0 0.0
0.0 0.0 0.0
0.0 0.0 0.0
0.0 0.0 0.0
0.0 0.0 0.0
0.0 0.0 0.0
0.0 0.0 0.0
0.0 0.0 0.0
0.0 0.0 0.0
0.0 0.0 0.0
0.0 0.0 0.0
0.0 0.0 0.0
0.0 0.0 0.0
0.0 0.0 0.0
0.0 0.0 0.0
0.0 0.0 0.0
0.0 0.0 0.0
0.0 0.0 0.0
0.0 0.0 0.0
0.0 0.0 0.0
0.0 0.0 0.0
0.0 0.0 0.0
0.0 0.0 0.0
0.0 0.0 0.0
0.0 0.0 0.0
0.0 0.0 0.0
0.0 0.0 0.0
0.0 0.0 0.0
0.0 0.0 0.0
0.0 0.0 0.0
0.0 0.0 0.0
0.0 0.0 0.0
0.0 0.0 0.0
0.0 0.0 0.0
0.0 0.0 0.0
0.0 0.0 0.0
0.0 0.0 0.0
0.0 0.0 0.0
0.0 0.0 0.0
0.0 0.0 0.0
0.0 0.0 0.0
0.0 0.0 0.0
0.0 0.0 0.0
0.0 0.0 0.0
0.0 0.0 0.0
0.0 0.0 0.0
0.0 0.0 0.0
0.0 0.0 0.0
0.0 0.0 0.0
0.0 0.0 0.0
0.0 0.0 0.0
0.0 0.0 0.0
0.0 0.0 0.0
0.0 0.0 0.0
0.0 0.0 0.0
0.0 0.0 0.0
0.0 0.0 0.0
0.0 0.0 0.0
0.0 0.0 0.0
0.0 0.0 0.0
0.0 0.0 0.0
0.0 0.0 0.0
0.0 0.0 0.0
0.0 0.0 0.0
0.0 0.0 0.0
0.0 0.0 0.0
0.0 0.0 0.0
0.0 0.0 0.0
0.0 0.0 0.0
0.0 0.0 0.0
0.0 0.0 0.0
0.0 0.0 0.0
0.0 0.0 0.0
0.0 0.0 0.0
0.0 0.0 0.0
0.0 0.0 0.0
0.0 0.0 0.0
0.0 0.0 0.0
0.0 0.0 0.0
0.0 0.0 0.0
0.0 0.0 0.0
0.0 0.0 0.0
0.0 0.0 0.0
0.0 0.0 0.0
0.0 0.0 0.0
0.0 0.0 0.0
0.0 0.0 0.0
0.0 0.0 0.0
0.0 0.0 0.0
0.0 0.0 0.0
0.0 0.0 0.0
0.0 0.0 0.0
0.0 0.0 0.0
0.0 0.0 0.0
0.0 0.0 0.0
0.0 0.0 0.0
0.0 0.0 0.0
0.0 0.0 0.0
0.0 0.0 0.0
0.0 0.0 0.0
0.0 0.0 0.0
0.0 0.0 0.0
0.0 0.0 0.0
0.0 0.0 0.0
0.0 0.0 0.0
0.0 0.0 0.0
0.0 0.0 0.0
0.0 0.0 0.0
0.0 0.0 0.0
0.0 0.0 0.0
0.0 0.0 0.0
0.0 0.0 0.0
0.0 0.0 0.0
0.0 0.0 0.0
0.0 0.0 0.0
0.0 0.0 0.0
0.0 0.0 0.0
0.0 0.0 0.0
0.0 0.0 0.0
0.0 0.0 0.0
0.0 0.0 0.0
0.0 0.0 0.0
0.0 0.0 0.0
0.0 0.0 0.0
0.0 0.0 0.0
0.0 0.0 0.0
0.0 0.0 0.0
0.0 0.0 0.0
0.0 0.0 0.0
0.0 0.0 0.0
0.0 0.0 0.0
0.0 0.0 0.0
0.0 0.0 0.0
0.0 0.0 0.0
0.0 0.0 0.0
0.0 0.0 0.0
0.0 0.0 0.0
0.0 0.0 0.0
0.0 0.0 0.0
0.0 0.0 0.0
0.0 0.0 0.0
0.0 0.0 0.0
0.0 0.0 0.0
0.0 0.0 0.0
0.0 0.0 0.0
0.0 0.0 0.0
0.0 0.0 0.0
0.0 0.0 0.0
0.0 0.0 0.0
0.0 0.0 0.0
0.0 0.0 0.0
0.0 0.0 0.0
0.0 0.0 0.0
0.0 0.0 0.0
0.0 0.0 0.0
0.0 0.0 0.0
0.0 0.0 0.0
0.0 0.0 0.0
0.0 0.0 0.0
0.0 0.0 0.0
0.0 0.0 0.0
0.0 0.0 0.0
0.0 0.0 0.0
0.0 0.0 0.0
0.0 0.0 0.0
0.0 0.0 0.0
0.0 0.0 0.0
0.0 0.0 0.0
0.0 0.0 0.0
0.0 0.0 0.0
0.0 0.0 0.0
0.0 0.0 0.0
0.432564526865 3.05736813546e-05 0.0
0.771946380418 0.000164008377577 0.0
1.01207821783 0.000141089594145 0.0
1.16021644108 -2.41477479007e-05 0.0
1.24048329586 -0.000359679381028 0.0
1.27400945812 -0.000161684268386 0.0
1.29600672354 0.000188138744313 0.0
1.2997803738 -5.76338065338e-06 0.0
1.29788870451 -9.91957185127e-06 0.0
1.29231260339 1.97414563914e-05 0.0
1.27705358659 7.4507342647e-05 0.0
1.24057334152 0.000105086675215 0.0
1.1601802619 0.000208047069095 0.0
1.01344112309 0.00020671029441 0.0
0.773812596631 0.000195100712158 0.0
0.433429007067 -0.000110312165449 0.0
0.218603409741 0.00087341279038 0.0
0.601302405095 0.000480890783321 0.0
0.888281835694 -0.000117094071521 0.0
1.0850950951 -0.000763731093908 0.0
1.20176381959 0.000443809825219 0.0
1.262087069 0.000435624230946 0.0
1.28957103869 -9.93044776537e-05 0.0
1.30219939618 3.06168840892e-05 0.0
1.30532849402 -1.19933657274e-05 0.0
1.30089177534 -1.17628356684e-05 0.0
1.29146436643 -9.63932265329e-05 0.0
1.26297742248 -0.000154413194412 0.0
1.20242221453 -0.000676603918508 0.0
1.0854545337 -0.000369101680634 0.0
0.890287518679 -0.00115418929254 0.0
0.602110683724 -0.000355391599825 0.0
0.21899275366 -0.000899219264854 0.0
0.0 0.0 0.0
0.0 0.0 0.0
0.0 0.0 0.0
0.0 0.0 0.0
0.0 0.0 0.0
0.0 0.0 0.0
0.0 0.0 0.0
0.0 0.0 0.0
0.0 0.0 0.0
0.0 0.0 0.0
0.0 0.0 0.0
0.0 0.0 0.0
0.0 0.0 0.0
0.0 0.0 0.0
0.0 0.0 0.0
0.0 0.0 0.0
0.0 0.0 0.0
0.0 0.0 0.0
0.0 0.0 0.0
0.0 0.0 0.0
0.0 0.0 0.0
0.0 0.0 0.0
0.0 0.0 0.0
0.0 0.0 0.0
0.0 0.0 0.0
0.0 0.0 0.0
0.0 0.0 0.0
0.0 0.0 0.0
0.0 0.0 0.0
0.0 0.0 0.0
0.0 0.0 0.0
0.0 0.0 0.0
0.0 0.0 0.0
0.0 0.0 0.0
0.0 0.0 0.0
0.0 0.0 0.0
0.0 0.0 0.0
0.0 0.0 0.0
0.0 0.0 0.0
0.0 0.0 0.0
0.0 0.0 0.0
0.0 0.0 0.0
0.0 0.0 0.0
0.0 0.0 0.0
0.0 0.0 0.0
0.0 0.0 0.0
0.0 0.0 0.0
0.0 0.0 0.0
0.0 0.0 0.0
0.0 0.0 0.0
0.0 0.0 0.0
0.0 0.0 0.0
0.0 0.0 0.0
0.0 0.0 0.0
0.0 0.0 0.0
0.0 0.0 0.0
0.0 0.0 0.0
0.0 0.0 0.0
0.0 0.0 0.0
0.0 0.0 0.0
0.0 0.0 0.0
0.0 0.0 0.0
0.0 0.0 0.0
0.0 0.0 0.0
0.0 0.0 0.0
0.0 0.0 0.0
0.0 0.0 0.0
0.0 0.0 0.0
0.0 0.0 0.0
0.0 0.0 0.0
0.0 0.0 0.0
0.0 0.0 0.0
0.0 0.0 0.0
0.0 0.0 0.0
0.0 0.0 0.0
0.0 0.0 0.0
0.0 0.0 0.0
0.0 0.0 0.0
0.0 0.0 0.0
0.0 0.0 0.0
0.0 0.0 0.0
0.0 0.0 0.0
0.0 0.0 0.0
0.0 0.0 0.0
0.0 0.0 0.0
0.0 0.0 0.0
0.0 0.0 0.0
0.0 0.0 0.0
0.0 0.0 0.0
0.0 0.0 0.0
0.0 0.0 0.0
0.0 0.0 0.0
0.0 0.0 0.0
0.0 0.0 0.0
0.0 0.0 0.0
0.0 0.0 0.0
0.0 0.0 0.0
0.0 0.0 0.0
0.0 0.0 0.0
0.0 0.0 0.0
0.0 0.0 0.0
0.0 0.0 0.0
0.0 0.0 0.0
0.0 0.0 0.0
0.0 0.0 0.0
0.0 0.0 0.0
0.0 0.0 0.0
0.0 0.0 0.0
0.0 0.0 0.0
0.0 0.0 0.0
0.0 0.0 0.0
0.0 0.0 0.0
0.0 0.0 0.0
0.0 0.0 0.0
0.0 0.0 0.0
0.0 0.0 0.0
0.0 0.0 0.0
0.0 0.0 0.0
0.0 0.0 0.0
0.0 0.0 0.0
0.0 0.0 0.0
0.0 0.0 0.0
0.0 0.0 0.0
0.0 0.0 0.0
0.0 0.0 0.0
0.0 0.0 0.0
0.0 0.0 0.0
0.0 0.0 0.0
0.0 0.0 0.0
0.0 0.0 0.0
0.0 0.0 0.0
0.0 0.0 0.0
0.0 0.0 0.0
0.0 0.0 0.0
0.0 0.0 0.0
0.0 0.0 0.0
0.0 0.0 0.0
0.0 0.0 0.0
0.0 0.0 0.0
0.0 0.0 0.0
0.0 0.0 0.0
0.0 0.0 0.0
0.0 0.0 0.0
0.0 0.0 0.0
0.0 0.0 0.0
0.0 0.0 0.0
0.0 0.0 0.0
0.0 0.0 0.0
0.0 0.0 0.0
0.0 0.0 0.0
0.0 0.0 0.0
0.0 0.0 0.0
0.0 0.0 0.0
0.0 0.0 0.0
0.0 0.0 0.0
0.0 0.0 0.0
0.0 0.0 0.0
0.0 0.0 0.0
0.0 0.0 0.0
0.0 0.0 0.0
0.0 0.0 0.0
0.0 0.0 0.0
0.0 0.0 0.0
0.0 0.0 0.0
0.0 0.0 0.0
0.0 0.0 0.0
0.0 0.0 0.0
0.0 0.0 0.0
0.0 0.0 0.0
0.0 0.0 0.0
0.0 0.0 0.0
0.0 0.0 0.0
0.0 0.0 0.0
0.0 0.0 0.0
0.0 0.0 0.0
0.0 0.0 0.0
0.0 0.0 0.0
0.0 0.0 0.0
0.0 0.0 0.0
0.0 0.0 0.0
0.0 0.0 0.0
0.0 0.0 0.0
0.0 0.0 0.0
0.0 0.0 0.0
0.0 0.0 0.0
0.0 0.0 0.0
0.0 0.0 0.0
0.0 0.0 0.0
0.0 0.0 0.0
0.0 0.0 0.0
0.0 0.0 0.0
0.0 0.0 0.0
0.0 0.0 0.0
0.0 0.0 0.0
0.0 0.0 0.0
0.0 0.0 0.0
0.0 0.0 0.0
0.0 0.0 0.0
0.0 0.0 0.0
0.0 0.0 0.0
0.0 0.0 0.0
0.0 0.0 0.0
0.0 0.0 0.0
0.0 0.0 0.0
0.0 0.0 0.0
0.0 0.0 0.0
0.0 0.0 0.0
0.0 0.0 0.0
0.0 0.0 0.0
0.0 0.0 0.0
0.0 0.0 0.0
0.0 0.0 0.0
0.0 0.0 0.0
0.0 0.0 0.0
0.0 0.0 0.0
0.0 0.0 0.0
0.0 0.0 0.0
0.0 0.0 0.0
0.0 0.0 0.0
0.0 0.0 0.0
0.0 0.0 0.0
0.0 0.0 0.0
0.0 0.0 0.0
0.0 0.0 0.0
0.0 0.0 0.0
0.0 0.0 0.0
0.0 0.0 0.0
0.0 0.0 0.0
0.0 0.0 0.0
0.0 0.0 0.0
0.0 0.0 0.0
0.0 0.0 0.0
0.0 0.0 0.0
0.0 0.0 0.0
0.0 0.0 0.0
0.0 0.0 0.0
0.0 0.0 0.0
0.0 0.0 0.0
0.0 0.0 0.0
0.0 0.0 0.0
0.0 0.0 0.0
0.0 0.0 0.0
0.0 0.0 0.0
0.0 0.0 0.0
0.0 0.0 0.0
0.0 0.0 0.0
0.0 0.0 0.0
0.0 0.0 0.0
0.0 0.0 0.0
0.0 0.0 0.0
0.0 0.0 0.0
0.0 0.0 0.0
0.0 0.0 0.0
0.0 0.0 0.0
0.0 0.0 0.0
0.0 0.0 0.0
0.0 0.0 0.0
0.0 0.0 0.0
0.0 0.0 0.0
0.0 0.0 0.0
0.0 0.0 0.0
0.0 0.0 0.0
0.0 0.0 0.0
0.0 0.0 0.0
0.0 0.0 0.0
0.0 0.0 0.0
0.0 0.0 0.0
0.0 0.0 0.0
0.0 0.0 0.0
0.0 0.0 0.0
0.0 0.0 0.0
0.0 0.0 0.0
0.0 0.0 0.0
0.0 0.0 0.0
0.0 0.0 0.0
0.0 0.0 0.0
0.0 0.0 0.0
0.0 0.0 0.0
0.0 0.0 0.0
0.0 0.0 0.0
0.0 0.0 0.0
0.0 0.0 0.0
0.0 0.0 0.0
0.0 0.0 0.0
0.0 0.0 0.0
0.0 0.0 0.0
0.0 0.0 0.0
0.0 0.0 0.0
0.0 0.0 0.0
0.0 0.0 0.0
0.0 0.0 0.0
0.0 0.0 0.0
0.0 0.0 0.0
0.0 0.0 0.0
0.0 0.0 0.0
0.0 0.0 0.0
0.0 0.0 0.0
0.0 0.0 0.0
0.0 0.0 0.0
0.0 0.0 0.0
0.0 0.0 0.0
0.0 0.0 0.0
0.0 0.0 0.0
0.0 0.0 0.0
0.0 0.0 0.0
0.0 0.0 0.0
0.0 0.0 0.0
0.0 0.0 0.0
0.0 0.0 0.0
0.0 0.0 0.0
0.0 0.0 0.0
0.0 0.0 0.0
0.0 0.0 0.0
0.0 0.0 0.0
0.0 0.0 0.0
0.0 0.0 0.0
0.0 0.0 0.0
0.0 0.0 0.0
0.0 0.0 0.0
0.0 0.0 0.0
0.0 0.0 0.0
0.0 0.0 0.0
0.0 0.0 0.0
0.0 0.0 0.0
0.0 0.0 0.0
0.0 0.0 0.0
0.0 0.0 0.0
0.0 0.0 0.0
0.0 0.0 0.0
0.0 0.0 0.0
0.0 0.0 0.0
0.0 0.0 0.0
0.0 0.0 0.0
1.0 0.0 0.0
1.0 0.0 0.0
1.0 0.0 0.0
1.0 0.0 0.0
1.0 0.0 0.0
1.0 0.0 0.0
1.0 0.0 0.0
1.0 0.0 0.0
1.0 0.0 0.0
1.0 0.0 0.0
1.0 0.0 0.0
1.0 0.0 0.0
1.0 0.0 0.0
1.0 0.0 0.0
1.0 0.0 0.0
1.0 0.0 0.0
1.0 0.0 0.0
1.0 0.0 0.0
1.0 0.0 0.0
1.0 0.0 0.0
1.0 0.0 0.0
1.0 0.0 0.0
1.0 0.0 0.0
1.0 0.0 0.0
1.0 0.0 0.0
1.0 0.0 0.0
1.0 0.0 0.0
1.0 0.0 0.0
1.0 0.0 0.0
1.0 0.0 0.0
1.0 0.0 0.0
1.0 0.0 0.0
1.0 0.0 0.0
1.30070585616 0.000144829607796 0.0
1.11427761229 0.000217220272295 0.0
1.30275771795 -0.00030901321351 0.0
1.2407991203 -0.000394068868225 0.0
1.30280551248 -0.000172891993527 0.0
1.30067771289 -0.00100728052922 0.0
1.30264550974 -8.78634506074e-05 0.0
1.30297206434 0.000123282096814 0.0
1.30266051972 0.000359700169593 0.0
1.3032147833 0.000222794869545 0.0
1.30303440591 -0.000176841936103 0.0
1.3027089383 -8.52411569644e-05 0.0
1.303109624 -1.44299535573e-05 0.0
1.30238114947 -0.000283668235013 0.0
1.30327540026 4.46493105351e-05 0.0
1.30109622323 0.000112399849554 0.0
1.30177107217 -3.73857157225e-05 0.0
1.30129056423 -0.000110174958621 0.0
1.26404211249 -1.45325135002e-05 0.0
1.22821545346 -0.0397778347204 0.0
1.26633687977 -0.000223188459434 0.0
1.22369955504 0.0411031428344 0.0
1.26280751098 -0.000187010162482 0.0
1.26878287582 -0.0144926793923 0.0
1.26424439713 -0.000210589567451 0.0
1.26230956485 0.000279015060112 0.0
1.26262926897 0.000256870490437 0.0
1.26239868332 7.85205677384e-05 0.0
1.26264016429 0.00010549997505 0.0
1.26389796164 0.000175211037122 0.0
1.26284615579 0.000122924544399 0.0
1.2622378674 0.000179453265364 0.0
1.2622142451 0.000404255308478 0.0
1.26266625905 -0.000283620005697 0.0
1.26245334804 -0.000579302891422 0.0
1.26263932715 0.00016996039115 0.0
1.26296794607 0.000253422649142 0.0
1.2633720523 -0.000128290753147 0.0
1.26231655285 -0.000303796728867 0.0
1.26249455327 -0.000294258976406 0.0
1.26294620577 0.000535060375576 0.0
1.2626366582 0.000284980441628 0.0
1.26242456254 5.24162932605e-05 0.0
1.26277690356 -7.39440193583e-05 0.0
1.26926693697 0.000126044509802 0.0
1.26908064304 -0.00102283929778 0.0
1.26654542178 0.0134368477079 0.0
1.26226272853 -0.000142213102468 0.0
1.25708786765 -0.000120979641215 0.0
1.25692425053 -0.000397100946411 0.0
1.24115922626 -0.000369790551984 0.0
1.24119498452 0.000606580248928 0.0
1.10033041568 -0.0702322141717 0.0
1.23916399846 0.000355974703091 0.0
1.25266466631 0.000188362388173 0.0
1.08887206464 0.0654517254079 0.0
1.18260951372 -0.000406569658611 0.0
1.21361100259 -0.0262694810577 0.0
1.16717764292 -0.000398197242982 0.0
1.16958663395 -0.00248268342327 0.0
1.18464960183 -0.000138647401829 0.0
1.1849742201 2.7240182397e-06 0.0
1.18457717259 -0.000151956686405 0.0
1.1864160564 6.52593255868e-05 0.0
1.18259381517 -1.26224953789e-05 0.0
1.18290968437 0.000299810300241 0.0
1.18270233433 0.000267302261972 0.0
1.18258420188 -0.000149490127748 0.0
1.18318390103 -0.000601057337024 0.0
1.18243717295 -0.000210827978011 0.0
1.18288982521 -0.000145800566365 0.0
1.18297737156 -0.000559955086334 0.0
1.18234773106 -5.88759976131e-05 0.0
1.18698468236 -0.00016016599748 0.0
1.18468599173 -0.000390887589274 0.0
1.18541309062 0.000230672719157 0.0
1.18518618073 0.000489184873171 0.0
1.18504038786 0.000395527522281 0.0
1.18376045379 0.000242680162718 0.0
1.18381508746 7.1514946615e-05 0.0
1.18987220057 -0.000282590922677 0.0
1.18947705642 -4.31154651444e-06 0.0
1.1999594728 -0.000818065775663 0.0
1.2244583861 0.0301943165933 0.0
1.18510224603 0.000154207837109 0.0
1.18574749899 0.000328959803541 0.0
1.18149774063 6.77169870235e-05 0.0
1.21162219705 -0.070994466634 0.0
1.17942441408 0.000420708979831 0.0
1.20804922829 0.0727231115631 0.0
1.14778635752 0.000373737577793 0.0
1.17808799915 -4.6982647524e-05 0.0
1.03039108949 -0.0027608897109 0.0
1.30230870552 0.000126968301279 0.0
1.30288318952 -2.10020701512e-05 0.0
1.30289554711 -9.38235082061e-06 0.0
1.30333781797 -0.000145074461094 0.0
1.3027791682 0.000140265189788 0.0
1.30247784573 0.000194866732818 0.0
1.30244897804 -0.000214120760032 0.0
1.3019019996 -0.000483190062449 0.0
1.30254865872 -0.000148148333537 0.0
1.28814196522 -0.00045883284036 0.0
1.30211919103 -1.00472813063e-05 0.0
1.30298427813 -0.000723633184732 0.0
1.3023567369 0.000103382008163 0.0
1.30233479643 0.00027415737648 0.0
1.30180812256 0.000116870881786 0.0
1.30262796355 0.000199549676757 0.0
1.20272346841 2.39453175922e-05 0.0
1.30228821338 -0.000317045300859 0.0
1.01563424186 -0.000153491421481 0.0
1.03453827395 0.0115933154404 0.0
1.02586319932 0.00030541280055 0.0
1.02725623013 -0.000173401013448 0.0
1.0264934557 0.000217152030668 0.0
1.02821672002 0.000525844206377 0.0
1.02656410946 9.15187581869e-05 0.0
1.02759138861 1.29236594566e-05 0.0
1.0281801511 0.000506802494168 0.0
1.03189491697 0.000650180437298 0.0
1.03225661216 -0.000658071742886 0.0
1.0380520002 0.00342798257162 0.0
1.03486041444 -6.60060629004e-05 0.0
1.01417178909 -0.000269378040529 0.0
1.08520069585 -0.0291574441671 0.0
1.01362037258 -0.000491169957463 0.0
1.01299430413 0.00114672217454 0.0
1.0108407557 0.000242992164327 0.0
1.01624924327 -0.00473702276369 0.0
1.03198192658 -0.010593513008 0.0
1.01001658167 -0.000523354042521 0.0
1.01378060488 -0.000161730787493 0.0
1.01351526411 0.000421289214646 0.0
1.01087909819 -0.000400469078586 0.0
1.01045268387 0.000565190239548 0.0
1.01431522218 -0.000779716615034 0.0
1.0131725236 0.000759485205383 0.0
1.01118532281 0.000795566600971 0.0
1.01033509606 -0.000321220771725 0.0
1.01351457407 -0.000599687671271 0.0
1.01406459399 0.000119549724181 0.0
1.01040047858 -5.93228707272e-05 0.0
1.0108392472 0.000989143494872 0.0
1.01102681089 0.000403847326807 0.0
1.01025425237 -0.000674246741373 0.0
1.01344961033 -0.000234706003197 0.0
1.01075488845 0.000758353290435 0.0
1.01180411139 -0.000610098734636 0.0
1.0109319941 0.000404368370639 0.0
1.00717378871 -0.000418512597882 0.0
1.30210196507 -0.000155244550637 0.0
1.16280746683 -0.00764439142165 0.0
1.00668652078 0.000173542475699 0.0
1.30232532237 4.28043768612e-05 0.0
1.30161765615 0.000153389614836 0.0
1.30153396269 0.000367372979289 0.0
1.30130556049 0.000289243910776 0.0
1.30135195535 -0.0003885946916 0.0
1.30179645876 -0.000368932167216 0.0
1.30215789832 -0.000282284789467 0.0
1.30185045355 0.000149466081103 0.0
1.30098027175 0.000102358195679 0.0
1.30188162604 4.70931511213e-05 0.0
1.30194280852 -0.000150174518486 0.0
1.26829624615 -0.00472444626012 0.0
1.3015010401 -0.000135119069733 0.0
0.987001003673 0.000250628477999 0.0
0.985963465837 -0.000229248863578 0.0
1.00424055303 -0.000530422602006 0.0
1.07514110678 0.0306034312041 0.0
1.16119972797 -0.134300185532 0.0
1.01671175677 0.000179301284526 0.0
0.98866601891 -0.000108613561799 0.0
1.10467631038 -0.043225314468 0.0
0.992425819411 -1.74426088114e-05 0.0
0.991540922508 -0.00105420669824 0.0
1.00199424909 0.000133474889343 0.0
1.00281991473 -0.000540686962226 0.0
1.00246754494 0.000569277462083 0.0
1.00170586381 -0.000168504263447 0.0
1.01772868932 -0.000167719050859 0.0
1.13085832282 0.129065886433 0.0
1.00430489591 0.000100163634335 0.0
1.00300994664 -0.000755908097329 0.0
0.994765991501 0.00028418298066 0.0
1.00364911218 -0.000401523661914 0.0
0.98186472323 0.000664281735387 0.0
1.00253426229 -0.000212001601011 0.0
0.981091864394 -0.000828439076093 0.0
1.282593331 -0.000241770646217 0.0
1.26850831004 0.0187471529124 0.0
0.973656844846 0.000707979214267 0.0
0.973557464918 -8.02524889817e-05 0.0
1.28753961325 6.5792873623e-05 0.0
1.28740684864 -0.000507345315536 0.0
0.981091439369 0.000200766492892 0.0
1.09460103063 0.0445135255709 0.0
1.2815755562 -0.000107613934486 0.0
1.28221853293 0.0065340939308 0.0
1.28731961844 0.000186364054314 0.0
1.28666087126 0.000363707423366 0.0
1.28704843902 0.000198700487445 0.0
1.2871187447 2.17387174315e-05 0.0
1.28664922045 -0.000365953978794 0.0
1.28718951264 4.32504532739e-05 0.0
1.28813518011 0.000147848633053 0.0
0.97312325112 -0.000457151310466 0.0
0.947253230894 0.000348694865662 0.0
0.947943316923 -0.000507618789214 0.0
0.966202732968 0.000109404627982 0.0
0.957780833157 0.00049940729428 0.0
1.18198382461 -0.0910537936584 0.0
0.961413192504 4.49643728128e-06 0.0
1.17835278749 0.0966503622248 0.0
1.28359837636 -0.000149646424597 0.0
1.28396221181 -0.000120452814247 0.0
1.28923522451 -8.60141754601e-05 0.0
1.29058469782 -9.26794903476e-05 0.0
1.29110212551 -0.000135983255863 0.0
1.29086826071 -3.88033022893e-05 0.0
1.29040233413 1.05350403478e-05 0.0
1.29072106391 -0.000419128862111 0.0
1.29038944343 -0.000107694520776 0.0
1.28451664103 -0.000306563133139 0.0
1.24459473441 -0.0255883568173 0.0
1.29065106231 0.000414321797246 0.0
1.29100477336 0.000490817055854 0.0
1.28948784893 -7.84348745956e-05 0.0
1.28992044834 1.78755511004e-05 0.0
1.28363366911 6.9902014033e-05 0.0
1.28369850748 -0.000139224659956 0.0
1.28324034232 -0.000591426279465 0.0
1.28349787266 -0.000143420850747 0.0
1.2849275208 -0.00862309055201 0.0
1.28362208063 -6.21117012743e-05 0.0
1.2854243436 -0.00169193930045 0.0
1.28340915985 -0.000164746142476 0.0
1.28345546075 0.000103886343434 0.0
1.28334303229 9.34428279758e-05 0.0
1.28364800698 0.000145730206971 0.0
1.28256802721 0.000232636674924 0.0
1.28297919286 7.28383971839e-05 0.0
1.16934904329 0.0343576581745 0.0
1.2890899711 -6.69875002835e-05 0.0
1.28091155532 -4.73363713667e-05 0.0
1.2814368657 6.29988662237e-05 0.0
1.2981155292 0.000255230368101 0.0
1.07770422543 -0.0210329161738 0.0
1.02261464673 -0.0304351803485 0.0
1.28549738019 -4.76563487899e-05 0.0
1.02010684621 0.0308242367111 0.0
1.28292120949 -1.80442249203e-05 0.0
1.28171921939 0.000293071258454 0.0
1.11914685656 0.0469158024244 0.0
1.28995164433 -8.33456865919e-05 0.0
1.28927366624 0.000104447232838 0.0
1.28543024981 -2.33437538578e-05 0.0
1.28463557694 0.000219834963219 0.0
1.28989291299 -6.90719802072e-05 0.0
1.29030062673 0.000536502281067 0.0
1.24068804975 0.0214927257745 0.0
1.29001817905 -0.000497873011202 0.0
1.26854880864 7.4992716251e-05 0.0
1.26816265698 0.000168850354361 0.0
1.2704290408 0.000193721957878 0.0
1.27041418646 0.00039262298267 0.0
1.2705629549 -0.000480298790938 0.0
1.27085481878 -0.00039594502483 0.0
1.27053357935 -0.00010911854861 0.0
1.27085461328 0.000135603959621 0.0
1.27093393161 -7.46398936752e-06 0.0
1.27063825813 0.000200049371263 0.0
1.2709158375 0.000321755454663 0.0
1.26639319776 -0.0200041523642 0.0
1.26478184907 -0.000266705122615 0.0
1.30084833608 -4.34885944833e-05 0.0
1.30052015925 4.89695632382e-05 0.0
1.15179241101 -0.0293640083011 0.0
1.29423113552 3.69097156359e-05 0.0
0.8462180814 0.00368902511304 0.0
0.842045246906 0.000112141116955 0.0
1.26464182305 0.000437133853539 0.0
1.13544391913 -0.0569213364285 0.0
0.83282583123 0.0105871702497 0.0