# vtk DataFile Version 2.0
2D Simulation Python
ASCII
DATASET UNSTRUCTURED_GRID
FIELD FieldData 1
NODES 1 2 int
2790 1289

POINTS 2790 double
0.0 1.0 0.0
1.725 1.0 0.0
8.275 1.0 0.0
20.0 1.0 0.0
20.0 0.0 0.0
0.0 0.0 0.0
0.1916666666663293 1.0 0.0
0.3833333333324708 1.0 0.0
0.574999999998553 1.0 0.0
0.7666666666645966 1.0 0.0
0.9583333333312576 1.0 0.0
1.149999999998384 1.0 0.0
1.341666666665662 1.0 0.0
1.533333333332819 1.0 0.0
0.0958333333331406 1.0 0.0
0.2874999999994247 1.0 0.0
0.4791666666655395 1.0 0.0
0.6708333333315728 1.0 0.0
0.8624999999976626 1.0 0.0
1.054166666664886 1.0 0.0
1.245833333332057 1.0 0.0
1.437499999999343 1.0 0.0
1.629166666666455 1.0 0.0
1.92348484848444 1.0 0.0
2.121969696968978 1.0 0.0
2.320454545453434 1.0 0.0
2.518939393937826 1.0 0.0
2.717424242422235 1.0 0.0
2.915909090906411 1.0 0.0
3.1143939393908 1.0 0.0
3.312878787875129 1.0 0.0
3.511363636359531 1.0 0.0
3.709848484843827 1.0 0.0
3.90833333332816 1.0 0.0
4.106818181812215 1.0 0.0
4.305303030296804 1.0 0.0
4.503787878781365 1.0 0.0
4.702272727265711 1.0 0.0
4.900757575750005 1.0 0.0
5.099242424235156 1.0 0.0
5.297727272720327 1.0 0.0
5.496212121205663 1.0 0.0
5.694696969690998 1.0 0.0
5.89318181817668 1.0 0.0
6.09166666666213 1.0 0.0
6.290151515147423 1.0 0.0
6.488636363633031 1.0 0.0
6.687121212118713 1.0 0.0
6.885606060604342 1.0 0.0
7.084090909089381 1.0 0.0
7.282575757574369 1.0 0.0
7.481060606059355 1.0 0.0
7.679545454544343 1.0 0.0
7.878030303029329 1.0 0.0
8.076515151514705 1.0 0.0
1.824242424242199 1.0 0.0
2.022727272726695 1.0 0.0
2.221212121211181 1.0 0.0
2.41969696969563 1.0 0.0
2.618181818180092 1.0 0.0
2.816666666664316 1.0 0.0
3.015151515148624 1.0 0.0
3.213636363633039 1.0 0.0
3.412121212117267 1.0 0.0
3.610606060601583 1.0 0.0
3.809090909085975 1.0 0.0
4.007575757570153 1.0 0.0
4.206060606054539 1.0 0.0
4.404545454539001 1.0 0.0
4.603030303023853 1.0 0.0
4.801515151507715 1.0 0.0
4.999999999992074 1.0 0.0
5.198484848477777 1.0 0.0
5.396969696963081 1.0 0.0
5.595454545448261 1.0 0.0
5.793939393933949 1.0 0.0
5.992424242419331 1.0 0.0
6.190909090904785 1.0 0.0
6.389393939390224 1.0 0.0
6.587878787875795 1.0 0.0
6.786363636361617 1.0 0.0
6.984848484846598 1.0 0.0
7.183333333331875 1.0 0.0
7.381818181816625 1.0 0.0
7.580303030301849 1.0 0.0
7.778787878786936 1.0 0.0
7.977272727272114 1.0 0.0
8.175757575757618 1.0 0.0
8.473728813558951 1.0 0.0
8.672457627118133 1.0 0.0
8.871186440676855 1.0 0.0
9.069915254236154 1.0 0.0
9.268644067794812 1.0 0.0
9.467372881354057 1.0 0.0
9.666101694912944 1.0 0.0
9.864830508471961 1.0 0.0
10.06355932203108 1.0 0.0
10.26228813558986 1.0 0.0
10.46101694914916 1.0 0.0
10.65974576270777 1.0 0.0
10.85847457626706 1.0 0.0
11.05720338982589 1.0 0.0
11.25593220338497 1.0 0.0
11.45466101694402 1.0 0.0
11.65338983050287 1.0 0.0
11.85211864406215 1.0 0.0
12.05084745762035 1.0 0.0
12.24957627117938 1.0 0.0
12.44830508473794 1.0 0.0
12.64703389829659 1.0 0.0
12.84576271185557 1.0 0.0
13.04449152541379 1.0 0.0
13.24322033897301 1.0 0.0
13.44194915253121 1.0 0.0
13.6406779660903 1.0 0.0
13.83940677964874 1.0 0.0
14.03813559320751 1.0 0.0
14.23686440676681 1.0 0.0
14.43559322032663 1.0 0.0
14.63432203388679 1.0 0.0
14.8330508474463 1.0 0.0
15.0317796610067 1.0 0.0
15.23050847456608 1.0 0.0
15.42923728812645 1.0 0.0
15.62796610168606 1.0 0.0
15.82669491524602 1.0 0.0
16.02542372880584 1.0 0.0
16.22415254236431 1.0 0.0
16.42288135592496 1.0 0.0
16.62161016948498 1.0 0.0
16.82033898304518 1.0 0.0
17.01906779660567 1.0 0.0
17.2177966101654 1.0 0.0
17.41652542372565 1.0 0.0
17.61525423728425 1.0 0.0
17.81398305084494 1.0 0.0
18.01271186440355 1.0 0.0
18.21144067796387 1.0 0.0
18.41016949152309 1.0 0.0
18.6088983050827 1.0 0.0
18.80762711864282 1.0 0.0
19.00635593220153 1.0 0.0
19.20508474576211 1.0 0.0
19.40381355932072 1.0 0.0
19.60254237288117 1.0 0.0
19.80127118644013 1.0 0.0
8.374364406779554 1.0 0.0
8.573093220338519 1.0 0.0
8.771822033897509 1.0 0.0
8.970550847456504 1.0 0.0
9.169279661015429 1.0 0.0
9.368008474574502 1.0 0.0
9.566737288133496 1.0 0.0
9.765466101692677 1.0 0.0
9.964194915251602 1.0 0.0
10.16292372881015 1.0 0.0
10.36165254236967 1.0 0.0
10.56038135592849 1.0 0.0
10.75911016948728 1.0 0.0
10.95783898304648 1.0 0.0
11.15656779660554 1.0 0.0
11.35529661016447 1.0 0.0
11.55402542372345 1.0 0.0
11.75275423728253 1.0 0.0
11.95148305084111 1.0 0.0
12.15021186439983 1.0 0.0
12.34894067795883 1.0 0.0
12.54766949151722 1.0 0.0
12.74639830507616 1.0 0.0
12.94512711863486 1.0 0.0
13.14385593219357 1.0 0.0
13.34258474575207 1.0 0.0
13.54131355931069 1.0 0.0
13.7400423728695 1.0 0.0
13.93877118642822 1.0 0.0
14.13749999998697 1.0 0.0
14.33622881354686 1.0 0.0
14.53495762710678 1.0 0.0
14.73368644066656 1.0 0.0
14.93241525422655 1.0 0.0
15.13114406778625 1.0 0.0
15.32987288134641 1.0 0.0
15.52860169490635 1.0 0.0
15.7273305084661 1.0 0.0
15.9260593220261 1.0 0.0
16.12478813558534 1.0 0.0
16.32351694914468 1.0 0.0
16.52224576270527 1.0 0.0
16.72097457626511 1.0 0.0
16.91970338982543 1.0 0.0
17.11843220338561 1.0 0.0
17.31716101694539 1.0 0.0
17.51588983050497 1.0 0.0
17.71461864406449 1.0 0.0
17.91334745762401 1.0 0.0
18.11207627118383 1.0 0.0
18.31080508474307 1.0 0.0
18.50953389830311 1.0 0.0
18.70826271186271 1.0 0.0
18.90699152542239 1.0 0.0
19.10572033898203 1.0 0.0
19.30444915254171 1.0 0.0
19.50317796610107 1.0 0.0
19.70190677966065 1.0 0.0
19.90063559322003 1.0 0.0
20.0 0.7999999999999998 0.0
20.0 0.6000000000013869 0.0
20.0 0.4000000000016644 0.0
20.0 0.2000000000008322 0.0
20.0 0.9000000000000369 0.0
20.0 0.7000000000005904 0.0
20.0 0.5000000000017577 0.0
20.0 0.3000000000012483 0.0
20.0 0.1000000000004161 0.0
19.8 0.0 0.0
19.6 0.0 0.0
19.4 0.0 0.0
19.2 0.0 0.0
19.0 0.0 0.0
18.8 0.0 0.0
18.6 0.0 0.0
18.4 0.0 0.0
18.2 0.0 0.0
18.0 0.0 0.0
17.8 0.0 0.0
17.59999999999999 0.0 0.0
17.4 0.0 0.0
17.2 0.0 0.0
16.99999999999999 0.0 0.0
16.79999999999999 0.0 0.0
16.59999999999999 0.0 0.0
16.4 0.0 0.0
16.2 0.0 0.0
15.99999999999999 0.0 0.0
15.79999999999999 0.0 0.0
15.59999999999999 0.0 0.0
15.4 0.0 0.0
15.2 0.0 0.0
15.0 0.0 0.0
14.79999999999999 0.0 0.0
14.59999999999999 0.0 0.0
14.4 0.0 0.0
14.2 0.0 0.0
13.99999999999999 0.0 0.0
13.8 0.0 0.0
13.59999999999999 0.0 0.0
13.4 0.0 0.0
13.2 0.0 0.0
13.0 0.0 0.0
12.79999999999999 0.0 0.0
12.6 0.0 0.0
12.4 0.0 0.0
12.2 0.0 0.0
11.99999999999999 0.0 0.0
11.8 0.0 0.0
11.6 0.0 0.0
11.4 0.0 0.0
11.2 0.0 0.0
11.0 0.0 0.0
10.8 0.0 0.0
10.6 0.0 0.0
10.4 0.0 0.0
10.2 0.0 0.0
9.999999999999998 0.0 0.0
9.799999999999995 0.0 0.0
9.599999999999998 0.0 0.0
9.399999999999997 0.0 0.0
9.199999999999998 0.0 0.0
8.999999999999996 0.0 0.0
8.799999999999997 0.0 0.0
8.599999999999996 0.0 0.0
8.399999999999999 0.0 0.0
8.199999999999996 0.0 0.0
7.999999999999998 0.0 0.0
7.799999999999997 0.0 0.0
7.599999999999998 0.0 0.0
7.399999999999999 0.0 0.0
7.199999999999998 0.0 0.0
6.999999999999995 0.0 0.0
6.799999999999995 0.0 0.0
6.599999999999998 0.0 0.0
6.399999999999997 0.0 0.0
6.199999999999996 0.0 0.0
5.999999999999998 0.0 0.0
5.799999999999999 0.0 0.0
5.599999999999996 0.0 0.0
5.399999999999995 0.0 0.0
5.199999999999996 0.0 0.0
4.999999999999998 0.0 0.0
4.799999999999997 0.0 0.0
4.599999999999998 0.0 0.0
4.399999999999999 0.0 0.0
4.199999999999999 0.0 0.0
3.999999999999996 0.0 0.0
3.799999999999997 0.0 0.0
3.599999999999998 0.0 0.0
3.399999999999999 0.0 0.0
3.199999999999999 0.0 0.0
3.0 0.0 0.0
2.800000000000001 0.0 0.0
2.599999999999998 0.0 0.0
2.399999999999999 0.0 0.0
2.199999999999996 0.0 0.0
1.999999999999996 0.0 0.0
1.800000000000001 0.0 0.0
1.599999999999998 0.0 0.0
1.399999999999999 0.0 0.0
1.200000000000003 0.0 0.0
1.0 0.0 0.0
0.7999999999999972 0.0 0.0
0.5999999999999979 0.0 0.0
0.3999999999999986 0.0 0.0
0.1999999999999993 0.0 0.0
19.90000000000022 0.0 0.0
19.69999999999997 0.0 0.0
19.49999999999987 0.0 0.0
19.30000000000005 0.0 0.0
19.09999999999999 0.0 0.0
18.89999999999987 0.0 0.0
18.7 0.0 0.0
18.49999999999999 0.0 0.0
18.30000000000001 0.0 0.0
18.09999999999987 0.0 0.0
17.90000000000013 0.0 0.0
17.7 0.0 0.0
17.49999999999987 0.0 0.0
17.30000000000025 0.0 0.0
17.10000000000001 0.0 0.0
16.90000000000005 0.0 0.0
16.70000000000003 0.0 0.0
16.50000000000006 0.0 0.0
16.29999999999997 0.0 0.0
16.09999999999999 0.0 0.0
15.89999999999987 0.0 0.0
15.69999999999999 0.0 0.0
15.49999999999999 0.0 0.0
15.3 0.0 0.0
15.10000000000003 0.0 0.0
14.90000000000005 0.0 0.0
14.69999999999992 0.0 0.0
14.49999999999996 0.0 0.0
14.29999999999999 0.0 0.0
14.10000000000008 0.0 0.0
13.89999999999988 0.0 0.0
13.70000000000003 0.0 0.0
13.50000000000004 0.0 0.0
13.29999999999992 0.0 0.0
13.09999999999995 0.0 0.0
12.90000000000016 0.0 0.0
12.7 0.0 0.0
12.49999999999986 0.0 0.0
12.30000000000003 0.0 0.0
12.10000000000016 0.0 0.0
11.90000000000005 0.0 0.0
11.69999999999994 0.0 0.0
11.49999999999993 0.0 0.0
11.30000000000005 0.0 0.0
11.0999999999999 0.0 0.0
10.90000000000004 0.0 0.0
10.69999999999995 0.0 0.0
10.50000000000012 0.0 0.0
10.29999999999999 0.0 0.0
10.09999999999993 0.0 0.0
9.900000000000077 0.0 0.0
9.699999999999969 0.0 0.0
9.499999999999982 0.0 0.0
9.299999999999969 0.0 0.0
9.100000000000108 0.0 0.0
8.899999999999972 0.0 0.0
8.699999999999958 0.0 0.0
8.499999999999998 0.0 0.0
8.30000000000003 0.0 0.0
8.099999999999977 0.0 0.0
7.899999999999974 0.0 0.0
7.700000000000166 0.0 0.0
7.499999999999854 0.0 0.0
7.299999999999997 0.0 0.0
7.100000000000019 0.0 0.0
6.900000000000002 0.0 0.0
6.699999999999974 0.0 0.0
6.500000000000037 0.0 0.0
6.299999999999981 0.0 0.0
6.100000000000014 0.0 0.0
5.899999999999949 0.0 0.0
5.700000000000049 0.0 0.0
5.499999999999956 0.0 0.0
5.300000000000118 0.0 0.0
5.100000000000005 0.0 0.0
4.900000000000109 0.0 0.0
4.699999999999982 0.0 0.0
4.499999999999936 0.0 0.0
4.300000000000137 0.0 0.0
4.100000000000012 0.0 0.0
3.899999999999888 0.0 0.0
3.69999999999974 0.0 0.0
3.500000000000046 0.0 0.0
3.299999999999965 0.0 0.0
3.099999999999817 0.0 0.0
2.900000000000066 0.0 0.0
2.699999999999793 0.0 0.0
2.500000000000064 0.0 0.0
2.299999999999823 0.0 0.0
[...]
POINT_DATA 2790
VECTORS vector double
1.0 0.0 0.0
0.0 0.0 0.0
0.0 0.0 0.0
0.0 0.0 0.0
1.53350038981 0.0 0.0
1.0 0.0 0.0
0.0 0.0 0.0
0.0 0.0 0.0
0.0 0.0 0.0
0.0 0.0 0.0
0.0 0.0 0.0
0.0 0.0 0.0
0.0 0.0 0.0
0.0 0.0 0.0
0.0 0.0 0.0
0.0 0.0 0.0
0.0 0.0 0.0
0.0 0.0 0.0
0.0 0.0 0.0
0.0 0.0 0.0
0.0 0.0 0.0
0.0 0.0 0.0
0.0 0.0 0.0
0.0 0.0 0.0
0.0 0.0 0.0
0.0 0.0 0.0
0.0 0.0 0.0
0.0 0.0 0.0
0.0 0.0 0.0
0.0 0.0 0.0
0.0 0.0 0.0
0.0 0.0 0.0
0.0 0.0 0.0
0.0 0.0 0.0
0.0 0.0 0.0
0.0 0.0 0.0
0.0 0.0 0.0
0.0 0.0 0.0
0.0 0.0 0.0
0.0 0.0 0.0
0.0 0.0 0.0
0.0 0.0 0.0
0.0 0.0 0.0
0.0 0.0 0.0
0.0 0.0 0.0
0.0 0.0 0.0
0.0 0.0 0.0
0.0 0.0 0.0
0.0 0.0 0.0
0.0 0.0 0.0
0.0 0.0 0.0
0.0 0.0 0.0
0.0 0.0 0.0
0.0 0.0 0.0
0.0 0.0 0.0
0.0 0.0 0.0
0.0 0.0 0.0
0.0 0.0 0.0
0.0 0.0 0.0
0.0 0.0 0.0
0.0 0.0 0.0
0.0 0.0 0.0
0.0 0.0 0.0
0.0 0.0 0.0
0.0 0.0 0.0
0.0 0.0 0.0
0.0 0.0 0.0
0.0 0.0 0.0
0.0 0.0 0.0
0.0 0.0 0.0
0.0 0.0 0.0
0.0 0.0 0.0
0.0 0.0 0.0
0.0 0.0 0.0
0.0 0.0 0.0
0.0 0.0 0.0
0.0 0.0 0.0
0.0 0.0 0.0
0.0 0.0 0.0
0.0 0.0 0.0
0.0 0.0 0.0
0.0 0.0 0.0
0.0 0.0 0.0
0.0 0.0 0.0
0.0 0.0 0.0
0.0 0.0 0.0
0.0 0.0 0.0
0.0 0.0 0.0
0.0 0.0 0.0
0.0 0.0 0.0
0.0 0.0 0.0
0.0 0.0 0.0
0.0 0.0 0.0
0.0 0.0 0.0
0.0 0.0 0.0
0.0 0.0 0.0
0.0 0.0 0.0
0.0 0.0 0.0
0.0 0.0 0.0
0.0 0.0 0.0
0.0 0.0 0.0
0.0 0.0 0.0
0.0 0.0 0.0
0.0 0.0 0.0
0.0 0.0 0.0
0.0 0.0 0.0
0.0 0.0 0.0
0.0 0.0 0.0
0.0 0.0 0.0
0.0 0.0 0.0
0.0 0.0 0.0
0.0 0.0 0.0
0.0 0.0 0.0
0.0 0.0 0.0
0.0 0.0 0.0
0.0 0.0 0.0
0.0 0.0 0.0
0.0 0.0 0.0
0.0 0.0 0.0
0.0 0.0 0.0
0.0 0.0 0.0
0.0 0.0 0.0
0.0 0.0 0.0
0.0 0.0 0.0
0.0 0.0 0.0
0.0 0.0 0.0
0.0 0.0 0.0
0.0 0.0 0.0
0.0 0.0 0.0
0.0 0.0 0.0
0.0 0.0 0.0
0.0 0.0 0.0
0.0 0.0 0.0
0.0 0.0 0.0
0.0 0.0 0.0
0.0 0.0 0.0
0.0 0.0 0.0
0.0 0.0 0.0
0.0 0.0 0.0
0.0 0.0 0.0
0.0 0.0 0.0
0.0 0.0 0.0
0.0 0.0 0.0
0.0 0.0 0.0
0.0 0.0 0.0
0.0 0.0 0.0
0.0 0.0 0.0
0.0 0.0 0.0
0.0 0.0 0.0
0.0 0.0 0.0
0.0 0.0 0.0
0.0 0.0 0.0
0.0 0.0 0.0
0.0 0.0 0.0
0.0 0.0 0.0
0.0 0.0 0.0
0.0 0.0 0.0
0.0 0.0 0.0
0.0 0.0 0.0
0.0 0.0 0.0
0.0 0.0 0.0
0.0 0.0 0.0
0.0 0.0 0.0
0.0 0.0 0.0
0.0 0.0 0.0
0.0 0.0 0.0
0.0 0.0 0.0
0.0 0.0 0.0
0.0 0.0 0.0
0.0 0.0 0.0
0.0 0.0 0.0
0.0 0.0 0.0
0.0 0.0 0.0
0.0 0.0 0.0
0.0 0.0 0.0
0.0 0.0 0.0
0.0 0.0 0.0
0.0 0.0 0.0
0.0 0.0 0.0
0.0 0.0 0.0
0.0 0.0 0.0
0.0 0.0 0.0
0.0 0.0 0.0
0.0 0.0 0.0
0.0 0.0 0.0
0.0 0.0 0.0
0.0 0.0 0.0
0.0 0.0 0.0
0.0 0.0 0.0
0.0 0.0 0.0
0.0 0.0 0.0
0.0 0.0 0.0
0.0 0.0 0.0
0.0 0.0 0.0
0.0 0.0 0.0
0.0 0.0 0.0
0.0 0.0 0.0
0.0 0.0 0.0
0.0 0.0 0.0
0.0 0.0 0.0
0.0 0.0 0.0
0.0 0.0 0.0
0.0 0.0 0.0
0.0 0.0 0.0
0.0 0.0 0.0
0.559802878524 3.34153158164e-05 0.0
0.977808606577 -0.000184519963061 0.0
1.25617434177 -0.000398094916602 0.0
1.42445544459 -0.00028359911564 0.0
0.285769772599 0.000153695751416 0.0
0.774879770302 0.00134547628745 0.0
1.12276177736 3.17872363179e-05 0.0
1.34346473284 -0.0006830301157 0.0
1.47814231273 -0.000197293478468 0.0
1.53241980311 0.0 0.0
1.53253262515 0.0 0.0
1.53275339575 0.0 0.0
1.53307126159 0.0 0.0
1.53247222787 0.0 0.0
1.53362608645 0.0 0.0
1.53387374972 0.0 0.0
1.53335320811 0.0 0.0
1.53397004729 0.0 0.0
1.53407368122 0.0 0.0
1.53351080897 0.0 0.0
1.53405747889 0.0 0.0
1.53410767073 0.0 0.0
1.53351247286 0.0 0.0
1.53241889167 0.0 0.0
1.53244664182 0.0 0.0
1.5334559278 0.0 0.0
1.53239477533 0.0 0.0
1.53225237873 0.0 0.0
1.53296572884 0.0 0.0
1.53135271316 0.0 0.0
1.53034276268 0.0 0.0
1.5299506293 0.0 0.0
1.52716239032 0.0 0.0
1.5249311119 0.0 0.0
1.52358576404 0.0 0.0
1.52015607043 0.0 0.0
1.51761876912 0.0 0.0
1.51623205973 0.0 0.0
1.51283096316 0.0 0.0
1.51037141075 0.0 0.0
1.5090000374 0.0 0.0
1.5054799565 0.0 0.0
1.50282464705 0.0 0.0
1.50123583778 0.0 0.0
1.4974171975 0.0 0.0
1.4944577484 0.0 0.0
1.49258502051 0.0 0.0
1.48814365564 0.0 0.0
1.48451434276 0.0 0.0
1.48233390466 0.0 0.0
1.47790030123 0.0 0.0
1.47392948017 0.0 0.0
1.47137250743 0.0 0.0
1.46652167321 0.0 0.0
1.46212644921 0.0 0.0
1.45920836986 0.0 0.0
1.45397185898 0.0 0.0
1.44916779613 0.0 0.0
1.44579648436 0.0 0.0
1.44028195267 0.0 0.0
1.4351518541 0.0 0.0
1.43117074503 0.0 0.0
1.42804426636 0.0 0.0
1.42176635734 0.0 0.0
1.4152278836 0.0 0.0
1.40963972935 0.0 0.0
1.40488370208 0.0 0.0
1.39859696648 0.0 0.0
1.39280576926 0.0 0.0
1.38838313026 0.0 0.0
1.3818641275 0.0 0.0
1.37572686207 0.0 0.0
1.37105180447 0.0 0.0
1.36424458895 0.0 0.0
1.35782913854 0.0 0.0
1.35283445599 0.0 0.0
1.34576659343 0.0 0.0
1.33907330015 0.0 0.0
1.33343622443 0.0 0.0
1.32817578935 0.0 0.0
1.32003357665 0.0 0.0
1.31315420235 0.0 0.0
1.30548459832 0.0 0.0
1.29703598884 0.0 0.0
1.28980331255 0.0 0.0
1.28087618077 0.0 0.0
1.27209953525 0.0 0.0
1.26400235093 0.0 0.0
1.25599826429 0.0 0.0
1.24690471411 0.0 0.0
1.23814049949 0.0 0.0
1.22926427488 0.0 0.0
1.2196636334 0.0 0.0
1.2100798394 0.0 0.0
1.20014556234 0.0 0.0
1.18984564281 0.0 0.0
1.17917649571 0.0 0.0
1.16792051662 0.0 0.0
1.15646154568 0.0 0.0
1.14402765583 0.0 0.0
1.13041604317 0.0 0.0
1.11642396965 0.0 0.0
1.10048152523 0.0 0.0
1.08220664974 0.0 0.0
1.06307870174 0.0 0.0
1.0410020636 0.0 0.0
1.01962732718 0.0 0.0
1.00418598153 0.0 0.0
1.5327434608 0.0 0.0
1.53190180884 0.0 0.0
1.53329472677 0.0 0.0
1.53200869862 0.0 0.0
1.53213668233 0.0 0.0
1.53261221368 0.0 0.0
1.53439481251 0.0 0.0
1.53300031146 0.0 0.0
1.533000996 0.0 0.0
1.53459648217 0.0 0.0
1.53315236202 0.0 0.0
1.53309333019 0.0 0.0
1.53465890626 0.0 0.0
1.53320689421 0.0 0.0
1.5331537367 0.0 0.0
1.53198279799 0.0 0.0
1.5332195081 0.0 0.0
1.53317996299 0.0 0.0
1.5318354138 0.0 0.0
1.5328702219 0.0 0.0
1.53235431774 0.0 0.0
1.53031867317 0.0 0.0
1.530363594 0.0 0.0
1.52861640976 0.0 0.0
1.52537443435 0.0 0.0
1.52439119803 0.0 0.0
1.52184863934 0.0 0.0
1.51812540355 0.0 0.0
1.51702502685 0.0 0.0
1.51452003074 0.0 0.0
1.51083556342 0.0 0.0
1.50978961034 0.0 0.0
1.50722373264 0.0 0.0
1.50336328732 0.0 0.0
1.502118396 0.0 0.0
1.49929719541 0.0 0.0
1.49515764517 0.0 0.0
1.49356116577 0.0 0.0
1.49033233889 0.0 0.0
1.48559050946 0.0 0.0
1.48319732435 0.0 0.0
1.48023062352 0.0 0.0
1.47515276617 0.0 0.0
1.47238617533 0.0 0.0
1.46902675599 0.0 0.0
1.46350199272 0.0 0.0
1.46035206725 0.0 0.0
1.45660741435 0.0 0.0
1.45073112609 0.0 0.0
1.44709604381 0.0 0.0
1.44304449459 0.0 0.0
1.4368805979 0.0 0.0
1.43279409644 0.0 0.0
1.42836783548 0.0 0.0
1.42401846972 0.0 0.0
1.41817350198 0.0 0.0
1.41148234761 0.0 0.0
1.40688334634 0.0 0.0
1.40167321912 0.0 0.0
1.39489100412 0.0 0.0
1.39015321518 0.0 0.0
1.3850902381 0.0 0.0
1.37787506813 0.0 0.0
1.37292324571 0.0 0.0
1.36757041483 0.0 0.0
1.36014239183 0.0 0.0
1.35485030976 0.0 0.0
1.34921799161 0.0 0.0
1.3415583593 0.0 0.0
1.33586496917 0.0 0.0
1.32966825426 0.0 0.0
1.32318675244 0.0 0.0
1.31596761584 0.0 0.0
1.30866995705 0.0 0.0
1.30070642482 0.0 0.0
1.29286079094 0.0 0.0
1.28416122617 0.0 0.0
1.27607834562 0.0 0.0
1.26754038564 0.0 0.0
1.25984083849 0.0 0.0
1.25095387501 0.0 0.0
1.24213949052 0.0 0.0
1.23350300751 0.0 0.0
1.22407921024 0.0 0.0
1.21464732074 0.0 0.0
1.20492893502 0.0 0.0
1.19476233416 0.0 0.0
1.18446190265 0.0 0.0
1.17340525186 0.0 0.0
1.1621282119 0.0 0.0
1.1503999634 0.0 0.0
1.1371453043 0.0 0.0
1.1235368059 0.0 0.0
1.1088091132 0.0 0.0
1.09127065499 0.0 0.0
1.07278415955 0.0 0.0
1.05240684278 0.0 0.0
1.03004546116 0.0 0.0
1.01147719574 0.0 0.0
0.99905781618 0.0 0.0
1.0 0.0 0.0
1.0 0.0 0.0
1.0 0.0 0.0
1.0 0.0 0.0
1.0 0.0 0.0
1.0 0.0 0.0
1.0 0.0 0.0
1.0 0.0 0.0
1.0 0.0 0.0
1.1651207725 -0.0709450388291 0.0
1.22327037006 -0.0466515803802 0.0
1.22846550962 -0.0314527363967 0.0
1.10518803282 -9.25102925701e-05 0.0
1.14023929099 2.97519974165e-05 0.0
1.13926282089 -2.33846167662e-05 0.0
1.13628682144 8.61227833911e-05 0.0
1.13407648639 0.000108660071755 0.0
1.13392590068 4.05635898866e-05 0.0
1.13380754647 -0.00028591323594 0.0
1.13454246625 -0.000914244346122 0.0
1.13612631273 -0.00142585858101 0.0
1.13793285683 -0.00163152445122 0.0
1.13977692264 -0.00175865229464 0.0
1.14182307406 -0.001913868557 0.0
1.09694663173 -0.00193930043954 0.0
1.10004868184 -0.00213436844479 0.0
1.1035926068 -0.00246305195395 0.0
1.10758951352 -0.00285615910544 0.0
1.16231204235 -0.00457539576801 0.0
1.22239113674 -0.0230669122357 0.0
1.13376823676 -0.00457973212342 0.0
1.11213690199 -0.0031319361674 0.0
1.20967269059 -0.017747082239 0.0
1.14101339172 -0.00513960704654 0.0
1.15284997377 -0.00392149368554 0.0
1.19670043414 -0.0140928280529 0.0
1.14927768937 -0.00562554451129 0.0
1.18452420976 -0.0115245625154 0.0
1.18611555393 -0.00687620807059 0.0
1.19670996558 -0.0107499527238 0.0
1.15883070815 -0.00451276733062 0.0
1.17402345023 -0.00994282663542 0.0
0.906475309689 -0.00105392118268 0.0
1.19826613044 -0.140032064081 0.0
1.29368417746 -0.0107890398774 0.0
1.28145993634 -0.0126096011217 0.0
1.31285854629 -0.0072999025896 0.0
1.26667318429 -0.0147912538637 0.0
1.31399985173 -0.00651013668893 0.0
1.21649160896 -0.0209036974691 0.0
1.24592646233 -0.0175000548218 0.0
1.31651675043 -0.00599184006275 0.0
1.31830340241 -0.00543953065473 0.0
1.32169724663 -0.00454232781372 0.0
1.32248401375 -0.00401941184188 0.0
1.32285938086 -0.00362841971861 0.0
1.32307674934 -0.00317801484161 0.0
1.32313061035 -0.0027976706459 0.0
1.31425724041 -0.00250289580617 0.0
1.31412781487 -0.00220586300385 0.0
1.31425890594 -0.00202988899547 0.0
1.21043965713 -0.0537643836243 0.0
1.31426573858 -0.00192771956078 0.0
1.31388439301 -0.00165369265071 0.0
1.31314593402 -0.00090111114615 0.0
1.17506129331 -0.025409592363 0.0
1.31275432495 -0.000182346815819 0.0
1.14220142321 -0.029449662787 0.0
1.12659838073 -0.033958678591 0.0
1.3110937935 8.10833747737e-05 0.0
1.31120429137 -1.14547531693e-05 0.0
0.863405775925 -0.00025117375047 0.0
1.31101459476 5.15865609886e-05 0.0
0.863045676798 -0.000241977928573 0.0
0.978313164444 -0.0072711303626 0.0
0.997942667119 -0.00870689980598 0.0
0.93789068785 -0.00332175478854 0.0
1.09098890423 -0.0197605566323 0.0
1.02176009405 -0.0110657849854 0.0
0.925440798726 -0.00355836063353 0.0
1.05181283621 -0.0145697226029 0.0
0.915204502068 -0.00328406279518 0.0
0.906127372456 -0.00279936304068 0.0
0.898281698768 -0.00213392297664 0.0
0.892088769323 -0.00218820922873 0.0
0.886680880116 -0.00192977197581 0.0
0.881896580932 -0.00166353139589 0.0
0.877742178078 -0.00145708894037 0.0
0.8742029185 -0.00119500704194 0.0
0.870969408255 -0.00114966119659 0.0
0.868066388636 -0.00106145466649 0.0
0.865377228106 -0.000965576634027 0.0
0.863137439723 -0.000740744691469 0.0
0.861780011675 -0.000370685273481 0.0
1.31504439667 2.9742469629e-07 0.0
0.861362863762 -8.42846439291e-05 0.0
0.861386722856 6.46829994842e-06 0.0
0.861604452235 4.45078766291e-05 0.0
0.861768222814 3.43798088355e-05 0.0
1.33070064031 -3.11702525118e-05 0.0
1.03321536538 -0.0338671295486 0.0
1.33542999518 -8.13987137173e-05 0.0
1.32116658184 -0.00504149134239 0.0
1.31374138296 -0.00837513027591 0.0
1.3048823896 -0.00965658227478 0.0
1.3320926582 -0.00536065617699 0.0
0.842734543887 -0.0034366757245 0.0
0.882756309048 -0.00234943767083 0.0
0.900257336804 -0.00354371790195 0.0
0.909629764693 -0.00797169548051 0.0
1.18024584737 -0.0764969341886 0.0
1.04235169027 -0.0280709703866 0.0
1.33730330209 -0.000302111023887 0.0
1.38408680044 -0.00250850449531 0.0
1.38157081269 -0.00284006434936 0.0
1.13722749772 -0.0209156926898 0.0
1.37395321091 -0.00239581900897 0.0
1.07391220417 -0.0282703949869 0.0
1.37847631699 -0.00320149180365 0.0
1.37554696363 -0.00215625458358 0.0
1.37702321796 -0.00200740145244 0.0
1.37035421131 -0.00366044204414 0.0
0.954938855392 -0.0158967059762 0.0
1.37829148782 -0.00192132355426 0.0
1.36674403342 -0.00401300416162 0.0
1.37887943142 -0.00147356369103 0.0
1.37891061076 -0.000618300909047 0.0
1.18336771116 -0.0169167326828 0.0
1.37895623217 -8.46451794062e-05 0.0
1.37000039216 3.61749922971e-05 0.0
1.41211047625 5.72858558949e-05 0.0
0.641371049743 1.56358895432e-05 0.0
1.35576192239 -0.00483902387616 0.0
1.40910161678 4.06268012915e-07 0.0
0.656934623179 0.000235342925709 0.0
0.615324894047 0.00052451878415 0.0
1.40908829257 7.86211547187e-05 0.0
0.638951375668 0.000400131828019 0.0
1.35115716441 -0.00514578373332 0.0
1.21971719883 -0.0143027406652 0.0
0.638415007509 0.00039752235205 0.0
0.637999116125 0.000388853199008 0.0
0.637767590316 0.000275111608929 0.0
0.638164551366 8.66739740517e-05 0.0
1.34429464099 -0.00556331931143 0.0
1.24953093176 -0.0124125207038 0.0
0.639455845918 -5.29459899315e-05 0.0
0.641419778533 -0.000100080198498 0.0
0.643720979098 -0.000141048813089 0.0
0.646141746676 -0.000182580388753 0.0
0.649511431589 -0.000390974739745 0.0
1.33573417304 -0.0060545161284 0.0
1.27327069018 -0.0108349315171 0.0
0.652684825391 -0.00045027084663 0.0
0.656377406366 -0.000543857515341 0.0
0.525882213371 -0.000488875725004 0.0
0.660701702741 -0.000678397049721 0.0
0.847178611914 -0.00831515906585 0.0
0.684313962035 -0.000987975080354 0.0
0.808501452619 -0.00594761060803 0.0
0.692564270505 -0.00118259264443 0.0
0.665335822126 -0.000695273449069 0.0
0.779735514059 -0.00447815659252 0.0
0.701216309837 -0.00101869937008 0.0
0.757264746382 -0.00345961777058 0.0
0.549372878734 0.000252002063723 0.0
0.635195257569 -0.00247131861886 0.0
0.568237188855 -0.000284716473788 0.0
1.32368847555 -0.00605391223569 0.0
1.29260772211 -0.00959505426696 0.0
1.30595914357 -0.00879149308393 0.0
1.33025747048 -0.00687835671233 0.0
1.35998850515 -0.00462685452189 0.0
1.3680923987 -0.00423793381321 0.0
0.652254727568 -0.00290325229997 0.0
0.865335898142 -0.00782162448551 0.0
1.41060953132 -8.03079377566e-05 0.0
1.0394999187 -0.0533913130013 0.0
1.13526677419 -0.000631964842115 0.0
1.19940120079 -0.000423500296921 0.0
1.04097401274 -0.0185637844714 0.0
0.536385893073 -5.32579629185e-06 0.0
1.10182988864 -0.0728669103446 0.0
1.03895806335 -0.0646075883351 0.0
0.584802435306 -0.00159659571913 0.0
1.42516127756 -0.00212175853555 0.0
1.42159180238 -0.00243544947603 0.0
1.42753963082 -0.00174941238485 0.0
1.41658789976 -0.00273949920648 0.0
1.27509230091 -0.289818264703 0.0
1.41037201333 -0.0030936240748 0.0
1.43095915869 -0.00156498087897 0.0
1.40390277209 -0.00328902093884 0.0
1.4341466445 -0.00148428333092 0.0
1.43707055169 -0.00145123825464 0.0
1.19524753871 -0.00993780313187 0.0
1.37343299953 -0.00419138834442 0.0
1.10740657703 -0.0155508001738 0.0
1.36317248383 -0.00451476540312 0.0
1.22913685901 -0.0087854893593 0.0
1.43909911601 -0.00099751019214 0.0
1.35176625433 -0.0047955075367 0.0
1.25799147895 -0.00778792191988 0.0
1.1554286423 -0.0117583928097 0.0
1.2825973922 -0.00696947559761 0.0
1.43988864928 -0.000259075509456 0.0
1.43889448201 8.77452123344e-05 0.0
1.43789888921 0.000110140646575 0.0
1.43514489673 0.000400928627107 0.0
1.43649880729 0.000349034261822 0.0
1.43760892534 0.000279177795008 0.0
1.16369152373 -0.00437408259773 0.0
0.762454402834 -0.0102412115491 0.0
0.816992294115 -0.0172271686662 0.0
0.877053059984 -0.0229725185889 0.0
0.730873053611 -0.00902636550649 0.0
0.505173498572 -0.000300545035939 0.0
0.504956152237 -0.000248914343224 0.0
0.504754973767 -0.00025721948679 0.0
1.20911219351 -0.00844269729229 0.0
0.504683026457 -0.000321989321662 0.0
0.50504895169 -0.000446456055161 0.0
0.506169961726 -0.000565292464419 0.0
1.13901200346 0.000282807468174 0.0
1.21331143806 -0.0108538922659 0.0
0.507938905047 -0.000615840421033 0.0
1.13931811264 0.000109853896619 0.0
0.510035999634 -0.000641096755275 0.0
0.512324999527 -0.000692328604787 0.0
0.514604995122 -0.000307789630706 0.0
0.517339734563 -0.000386881722522 0.0
1.12668024993 0.000166286805725 0.0
0.520556848133 -0.000448321557051 0.0
1.1263869447 0.00062097059762 0.0
0.513315620809 -0.00014910267909 0.0
0.5242807559 -0.000545992287402 0.0
1.12602818631 0.000521608913713 0.0
0.515438949055 -0.000551620307326 0.0
1.12625486705 0.000324964933863 0.0
0.512033036784 -0.000701107429881 0.0
0.528536544348 -0.00069323145283 0.0
1.12668636731 -0.000225438724482 0.0
0.512681125724 -0.000553304203619 0.0
0.518900098669 -0.000360340453688 0.0
1.12804346419 -0.000822964731369 0.0
0.701442432161 -0.00810149370693 0.0
1.12980805116 -0.0011053511023 0.0
1.13162708892 -0.00122029760297 0.0
0.546743170854 -0.000616380377258 0.0
1.1334966323 -0.00134274911044 0.0
1.13307590856 -0.00166334367893 0.0
1.22982461278 -0.0263050926976 0.0
0.664742491507 -0.00549190100469 0.0
0.553726999192 -0.00108808274822 0.0
1.13378918989 -0.00177044709034 0.0
1.13691400218 -0.00208918587544 0.0
0.638250007738 -0.00427748365734 0.0
0.561273041954 -0.00116147166948 0.0
1.14048396909 -0.0024585126699 0.0
0.61804485484 -0.00343577424949 0.0
0.544768095549 -0.000671197460725 0.0
1.14448913479 -0.00279758631904 0.0
1.1464590565 -0.00317368209716 0.0
0.588157224582 -0.00241518354709 0.0
1.15773894494 -0.00489816590725 0.0
1.16408727268 -0.00424467119963 0.0
1.17037309269 -0.00470258853381 0.0
1.22542736716 -0.0204824607267 0.0
1.17730591678 -0.00517308063478 0.0
1.21802039597 -0.0164488599872 0.0
1.18172389625 -0.00583051751996 0.0
1.2098648075 -0.0135534312317 0.0
1.19880655229 -0.0114623244399 0.0
1.2212924441 -0.0373317473321 0.0
1.19860276735 -0.0507515352013 0.0
1.18204771351 -0.0539880101148 0.0
1.19670220567 -0.00999267867587 0.0
1.22526319395 -0.0348171936581 0.0
1.22743531777 -0.0268234266503 0.0
1.20546316372 -0.0122164370689 0.0
1.17351992534 -0.00710910958001 0.0
1.21487641897 -0.0153490495044 0.0
1.16540563972 -0.00650338613441 0.0
1.22331202005 -0.0197627758262 0.0
1.15883602603 -0.00594221367704 0.0
0.613046462523 -0.00216425501924 0.0
1.15897808076 -0.00509284423458 0.0
0.633053095884 -0.00307416171471 0.0
0.570890591288 -0.00147894941958 0.0
0.704840199016 -0.00755044494841 0.0
1.14026571255 -0.00435884134266 0.0
0.655497942188 -0.00395332118642 0.0
0.567690277243 -0.00174926951304 0.0
1.13638883062 -0.00405390266929 0.0
1.13261810493 -0.00362907010286 0.0
0.685310990668 -0.00525213273339 0.0
0.56036389907 -0.00162145593428 0.0
1.12925466968 -0.00322736445258 0.0
1.43413934631 -0.000264773531875 0.0
1.12628676472 -0.00290531620688 0.0
1.13673008929 -0.00239385622066 0.0
0.530926469959 -0.000341303007987 0.0
1.13517281151 -0.0022146133854 0.0
1.13344357525 -0.00208274867845 0.0
1.13174717776 -0.0019412271639 0.0
1.13012580963 -0.00156095314093 0.0
1.12911592598 -0.000929397377631 0.0
1.12903884907 -0.000480646881006 0.0
1.12887596469 -0.000444961485581 0.0
1.13154707514 -9.18131278352e-05 0.0
1.12970462174 -1.656279768e-05 0.0
1.13047846101 -0.000270672432523 0.0
1.12777731044 -0.000652342552761 0.0
1.38281076631 -0.00395906475547 0.0
1.43709528755 -0.00020800158286 0.0
0.539909322076 -0.00133288097174 0.0
0.530818910519 -0.00133718255884 0.0
0.526691891121 -0.00120059984057 0.0
0.523141444722 -0.00110201453126 0.0
0.520064024025 -0.0010251580725 0.0
1.43768817676 -7.54068776681e-06 0.0
0.51759435458 -0.000623312978641 0.0
0.515274387913 -0.000689636195358 0.0
0.513034869922 -0.000637985628304 0.0
0.511022901148 -0.000609578724826 0.0
0.509440333831 -0.000534687291471 0.0
0.508594807006 -0.000400782141015 0.0
1.43890445602 -0.000227264855134 0.0
0.508438654419 -0.000300419607713 0.0
0.508583532007 -0.00028032238984 0.0
0.508809075945 -0.000270260958219 0.0
0.512355829274 6.99413021073e-05 0.0
1.43842607711 -0.000862180564344 0.0
1.436876044 -0.00151940474781 0.0
1.311049306 -0.00699453786346 0.0
1.43418348743 -0.00166871222616 0.0
1.33242264695 -0.00505003142057 0.0
0.908132453822 -0.00033312684779 0.0
1.43103062165 -0.0016965985822 0.0
1.00662427306 -0.0130145456285 0.0
1.08337650648 -0.0175738028067 0.0
1.43408320371 -0.000253240893064 0.0
1.42769524845 -0.00183983913253 0.0
1.21387696275 -0.0998265482152 0.0
1.42429897278 -0.00200537229815 0.0
1.4347589638 -0.00167984857846 0.0
1.3894553705 -0.00338124257176 0.0
1.42903246653 -0.00190988244586 0.0
1.42240090174 -0.00217104283292 0.0
1.43295808269 -0.00028688593647 0.0
1.41442110784 -0.00243359932153 0.0
1.40623708718 -0.00263034886907 0.0
1.13425210192 -0.0104612842288 0.0
1.17617261934 -0.00873917859609 0.0
1.3803498045 -0.00311018493327 0.0
1.34417191223 -0.00377555157579 0.0
1.29167568778 -0.00564357891463 0.0
1.36951558829 -0.00336370784046 0.0
1.21163504619 -0.00771132151964 0.0
1.29873451761 -0.00131372219158 0.0