# vtk DataFile Version 2.0
2D Simulation Python
ASCII
DATASET UNSTRUCTURED_GRID
FIELD FieldData 1
NODES 1 2 int
2790 1289

POINTS 2790 double
0.0 1.0 0.0
1.725 1.0 0.0
8.275 1.0 0.0
20.0 1.0 0.0
20.0 0.0 0.0
0.0 0.0 0.0
0.1916666666663293 1.0 0.0
0.3833333333324708 1.0 0.0
0.574999999998553 1.0 0.0
0.7666666666645966 1.0 0.0
0.9583333333312576 1.0 0.0
1.149999999998384 1.0 0.0
1.341666666665662 1.0 0.0
1.533333333332819 1.0 0.0
0.0958333333331406 1.0 0.0
0.2874999999994247 1.0 0.0
0.4791666666655395 1.0 0.0
0.6708333333315728 1.0 0.0
0.8624999999976626 1.0 0.0
1.054166666664886 1.0 0.0
1.245833333332057 1.0 0.0
1.437499999999343 1.0 0.0
1.629166666666455 1.0 0.0
1.92348484848444 1.0 0.0
2.121969696968978 1.0 0.0
2.320454545453434 1.0 0.0
2.518939393937826 1.0 0.0
2.717424242422235 1.0 0.0
2.915909090906411 1.0 0.0
3.1143939393908 1.0 0.0
3.312878787875129 1.0 0.0
3.511363636359531 1.0 0.0
3.709848484843827 1.0 0.0
3.90833333332816 1.0 0.0
4.106818181812215 1.0 0.0
4.305303030296804 1.0 0.0
4.503787878781365 1.0 0.0
4.702272727265711 1.0 0.0
4.900757575750005 1.0 0.0
5.099242424235156 1.0 0.0
5.297727272720327 1.0 0.0
5.496212121205663 1.0 0.0
5.694696969690998 1.0 0.0
5.89318181817668 1.0 0.0
6.09166666666213 1.0 0.0
6.290151515147423 1.0 0.0
6.488636363633031 1.0 0.0
6.687121212118713 1.0 0.0
6.885606060604342 1.0 0.0
7.084090909089381 1.0 0.0
7.282575757574369 1.0 0.0
7.481060606059355 1.0 0.0
7.679545454544343 1.0 0.0
7.878030303029329 1.0 0.0
8.076515151514705 1.0 0.0
1.824242424242199 1.0 0.0
2.022727272726695 1.0 0.0
2.221212121211181 1.0 0.0
2.41969696969563 1.0 0.0
2.618181818180092 1.0 0.0
2.816666666664316 1.0 0.0
3.015151515148624 1.0 0.0
3.213636363633039 1.0 0.0
3.412121212117267 1.0 0.0
3.610606060601583 1.0 0.0
3.809090909085975 1.0 0.0
4.007575757570153 1.0 0.0
4.206060606054539 1.0 0.0
4.404545454539001 1.0 0.0
4.603030303023853 1.0 0.0
4.801515151507715 1.0 0.0
4.999999999992074 1.0 0.0
5.198484848477777 1.0 0.0
5.396969696963081 1.0 0.0
5.595454545448261 1.0 0.0
5.793939393933949 1.0 0.0
5.992424242419331 1.0 0.0
6.190909090904785 1.0 0.0
6.389393939390224 1.0 0.0
6.587878787875795 1.0 0.0
6.786363636361617 1.0 0.0
6.984848484846598 1.0 0.0
7.183333333331875 1.0 0.0
7.381818181816625 1.0 0.0
7.580303030301849 1.0 0.0
7.778787878786936 1.0 0.0
7.977272727272114 1.0 0.0
8.175757575757618 1.0 0.0
8.473728813558951 1.0 0.0
8.672457627118133 1.0 0.0
8.871186440676855 1.0 0.0
9.069915254236154 1.0 0.0
9.268644067794812 1.0 0.0
9.467372881354057 1.0 0.0
9.666101694912944 1.0 0.0
9.864830508471961 1.0 0.0
10.06355932203108 1.0 0.0
10.26228813558986 1.0 0.0
10.46101694914916 1.0 0.0
10.65974576270777 1.0 0.0
10.85847457626706 1.0 0.0
11.05720338982589 1.0 0.0
11.25593220338497 1.0 0.0
11.45466101694402 1.0 0.0
11.65338983050287 1.0 0.0
11.85211864406215 1.0 0.0
12.05084745762035 1.0 0.0
12.24957627117938 1.0 0.0
12.44830508473794 1.0 0.0
12.64703389829659 1.0 0.0
12.84576271185557 1.0 0.0
13.04449152541379 1.0 0.0
13.24322033897301 1.0 0.0
13.44194915253121 1.0 0.0
13.6406779660903 1.0 0.0
13.83940677964874 1.0 0.0
14.03813559320751 1.0 0.0
14.23686440676681 1.0 0.0
14.43559322032663 1.0 0.0
14.63432203388679 1.0 0.0
14.8330508474463 1.0 0.0
15.0317796610067 1.0 0.0
15.23050847456608 1.0 0.0
15.42923728812645 1.0 0.0
15.62796610168606 1.0 0.0
15.82669491524602 1.0 0.0
16.02542372880584 1.0 0.0
16.22415254236431 1.0 0.0
16.42288135592496 1.0 0.0
16.62161016948498 1.0 0.0
16.82033898304518 1.0 0.0
17.01906779660567 1.0 0.0
17.2177966101654 1.0 0.0
17.41652542372565 1.0 0.0
17.61525423728425 1.0 0.0
17.81398305084494 1.0 0.0
18.01271186440355 1.0 0.0
18.21144067796387 1.0 0.0
18.41016949152309 1.0 0.0
18.6088983050827 1.0 0.0
18.80762711864282 1.0 0.0
19.00635593220153 1.0 0.0
19.20508474576211 1.0 0.0
19.40381355932072 1.0 0.0
19.60254237288117 1.0 0.0
19.80127118644013 1.0 0.0
8.374364406779554 1.0 0.0
8.573093220338519 1.0 0.0
8.771822033897509 1.0 0.0
8.970550847456504 1.0 0.0
9.169279661015429 1.0 0.0
9.368008474574502 1.0 0.0
9.566737288133496 1.0 0.0
9.765466101692677 1.0 0.0
9.964194915251602 1.0 0.0
10.16292372881015 1.0 0.0
10.36165254236967 1.0 0.0
10.56038135592849 1.0 0.0
10.75911016948728 1.0 0.0
10.95783898304648 1.0 0.0
11.15656779660554 1.0 0.0
11.35529661016447 1.0 0.0
11.55402542372345 1.0 0.0
11.75275423728253 1.0 0.0
11.95148305084111 1.0 0.0
12.15021186439983 1.0 0.0
12.34894067795883 1.0 0.0
12.54766949151722 1.0 0.0
12.74639830507616 1.0 0.0
12.94512711863486 1.0 0.0
13.14385593219357 1.0 0.0
13.34258474575207 1.0 0.0
13.54131355931069 1.0 0.0
13.7400423728695 1.0 0.0
13.93877118642822 1.0 0.0
14.13749999998697 1.0 0.0
14.33622881354686 1.0 0.0
14.53495762710678 1.0 0.0
14.73368644066656 1.0 0.0
14.93241525422655 1.0 0.0
15.13114406778625 1.0 0.0
15.32987288134641 1.0 0.0
15.52860169490635 1.0 0.0
15.7273305084661 1.0 0.0
15.9260593220261 1.0 0.0
16.12478813558534 1.0 0.0
16.32351694914468 1.0 0.0
16.52224576270527 1.0 0.0
16.72097457626511 1.0 0.0
16.91970338982543 1.0 0.0
17.11843220338561 1.0 0.0
17.31716101694539 1.0 0.0
17.51588983050497 1.0 0.0
17.71461864406449 1.0 0.0
17.91334745762401 1.0 0.0
18.11207627118383 1.0 0.0
18.31080508474307 1.0 0.0
18.50953389830311 1.0 0.0
18.70826271186271 1.0 0.0
18.90699152542239 1.0 0.0
19.10572033898203 1.0 0.0
19.30444915254171 1.0 0.0
19.50317796610107 1.0 0.0
19.70190677966065 1.0 0.0
19.90063559322003 1.0 0.0
20.0 0.7999999999999998 0.0
20.0 0.6000000000013869 0.0
20.0 0.4000000000016644 0.0
20.0 0.2000000000008322 0.0
20.0 0.9000000000000369 0.0
20.0 0.7000000000005904 0.0
20.0 0.5000000000017577 0.0
20.0 0.3000000000012483 0.0
20.0 0.1000000000004161 0.0
19.8 0.0 0.0
19.6 0.0 0.0
19.4 0.0 0.0
19.2 0.0 0.0
19.0 0.0 0.0
18.8 0.0 0.0
18.6 0.0 0.0
18.4 0.0 0.0
18.2 0.0 0.0
18.0 0.0 0.0
17.8 0.0 0.0
17.59999999999999 0.0 0.0
17.4 0.0 0.0
17.2 0.0 0.0
16.99999999999999 0.0 0.0
16.79999999999999 0.0 0.0
16.59999999999999 0.0 0.0
16.4 0.0 0.0
16.2 0.0 0.0
15.99999999999999 0.0 0.0
15.79999999999999 0.0 0.0
15.59999999999999 0.0 0.0
15.4 0.0 0.0
15.2 0.0 0.0
15.0 0.0 0.0
14.79999999999999 0.0 0.0
14.59999999999999 0.0 0.0
14.4 0.0 0.0
14.2 0.0 0.0
13.99999999999999 0.0 0.0
13.8 0.0 0.0
13.59999999999999 0.0 0.0
13.4 0.0 0.0
13.2 0.0 0.0
13.0 0.0 0.0
12.79999999999999 0.0 0.0
12.6 0.0 0.0
12.4 0.0 0.0
12.2 0.0 0.0
11.99999999999999 0.0 0.0
11.8 0.0 0.0
11.6 0.0 0.0
11.4 0.0 0.0
11.2 0.0 0.0
11.0 0.0 0.0
10.8 0.0 0.0
10.6 0.0 0.0
10.4 0.0 0.0
10.2 0.0 0.0
9.999999999999998 0.0 0.0
9.799999999999995 0.0 0.0
9.599999999999998 0.0 0.0
9.399999999999997 0.0 0.0
9.199999999999998 0.0 0.0
8.999999999999996 0.0 0.0
8.799999999999997 0.0 0.0
8.599999999999996 0.0 0.0
8.399999999999999 0.0 0.0
8.199999999999996 0.0 0.0
7.999999999999998 0.0 0.0
7.799999999999997 0.0 0.0
7.599999999999998 0.0 0.0
7.399999999999999 0.0 0.0
7.199999999999998 0.0 0.0
6.999999999999995 0.0 0.0
6.799999999999995 0.0 0.0
6.599999999999998 0.0 0.0
6.399999999999997 0.0 0.0
6.199999999999996 0.0 0.0
5.999999999999998 0.0 0.0
5.799999999999999 0.0 0.0
5.599999999999996 0.0 0.0
5.399999999999995 0.0 0.0
5.199999999999996 0.0 0.0
4.999999999999998 0.0 0.0
4.799999999999997 0.0 0.0
4.599999999999998 0.0 0.0
4.399999999999999 0.0 0.0
4.199999999999999 0.0 0.0
3.999999999999996 0.0 0.0
3.799999999999997 0.0 0.0
3.599999999999998 0.0 0.0
3.399999999999999 0.0 0.0
3.199999999999999 0.0 0.0
3.0 0.0 0.0
2.800000000000001 0.0 0.0
2.599999999999998 0.0 0.0
2.399999999999999 0.0 0.0
2.199999999999996 0.0 0.0
1.999999999999996 0.0 0.0
1.800000000000001 0.0 0.0
1.599999999999998 0.0 0.0
1.399999999999999 0.0 0.0
1.200000000000003 0.0 0.0
1.0 0.0 0.0
0.7999999999999972 0.0 0.0
0.5999999999999979 0.0 0.0
0.3999999999999986 0.0 0.0
0.1999999999999993 0.0 0.0
19.90000000000022 0.0 0.0
19.69999999999997 0.0 0.0
19.49999999999987 0.0 0.0
19.30000000000005 0.0 0.0
19.09999999999999 0.0 0.0
18.89999999999987 0.0 0.0
18.7 0.0 0.0
18.49999999999999 0.0 0.0
18.30000000000001 0.0 0.0
18.09999999999987 0.0 0.0
17.90000000000013 0.0 0.0
17.7 0.0 0.0
17.49999999999987 0.0 0.0
17.30000000000025 0.0 0.0
17.10000000000001 0.0 0.0
16.90000000000005 0.0 0.0
16.70000000000003 0.0 0.0
16.50000000000006 0.0 0.0
16.29999999999997 0.0 0.0
16.09999999999999 0.0 0.0
15.89999999999987 0.0 0.0
15.69999999999999 0.0 0.0
15.49999999999999 0.0 0.0
15.3 0.0 0.0
15.10000000000003 0.0 0.0
14.90000000000005 0.0 0.0
14.69999999999992 0.0 0.0
14.49999999999996 0.0 0.0
14.29999999999999 0.0 0.0
14.10000000000008 0.0 0.0
13.89999999999988 0.0 0.0
13.70000000000003 0.0 0.0
13.50000000000004 0.0 0.0
13.29999999999992 0.0 0.0
13.09999999999995 0.0 0.0
12.90000000000016 0.0 0.0
12.7 0.0 0.0
12.49999999999986 0.0 0.0
12.30000000000003 0.0 0.0
12.10000000000016 0.0 0.0
11.90000000000005 0.0 0.0
11.69999999999994 0.0 0.0
11.49999999999993 0.0 0.0
11.30000000000005 0.0 0.0
11.0999999999999 0.0 0.0
10.90000000000004 0.0 0.0
10.69999999999995 0.0 0.0
10.50000000000012 0.0 0.0
10.29999999999999 0.0 0.0
10.09999999999993 0.0 0.0
9.900000000000077 0.0 0.0
9.699999999999969 0.0 0.0
9.499999999999982 0.0 0.0
9.299999999999969 0.0 0.0
9.100000000000108 0.0 0.0
8.899999999999972 0.0 0.0
8.699999999999958 0.0 0.0
8.499999999999998 0.0 0.0
8.30000000000003 0.0 0.0
8.099999999999977 0.0 0.0
7.899999999999974 0.0 0.0
7.700000000000166 0.0 0.0
7.499999999999854 0.0 0.0
7.299999999999997 0.0 0.0
7.100000000000019 0.0 0.0
6.900000000000002 0.0 0.0
6.699999999999974 0.0 0.0
6.500000000000037 0.0 0.0
6.299999999999981 0.0 0.0
6.100000000000014 0.0 0.0
5.899999999999949 0.0 0.0
5.700000000000049 0.0 0.0
5.499999999999956 0.0 0.0
5.300000000000118 0.0 0.0
5.100000000000005 0.0 0.0
4.900000000000109 0.0 0.0
4.699999999999982 0.0 0.0
4.499999999999936 0.0 0.0
4.300000000000137 0.0 0.0
4.100000000000012 0.0 0.0
3.899999999999888 0.0 0.0
3.69999999999974 0.0 0.0
3.500000000000046 0.0 0.0
3.299999999999965 0.0 0.0
3.099999999999817 0.0 0.0
2.900000000000066 0.0 0.0
2.699999999999793 0.0 0.0
2.500000000000064 0.0 0.0
2.299999999999823 0.0 0.0
[...]
POINT_DATA 2790
VECTORS vector double
1.0 0.0 0.0
0.0 0.0 0.0
0.0 0.0 0.0
0.0 0.0 0.0
1.1469873802 0.0 0.0
1.0 0.0 0.0
0.0 0.0 0.0
0.0 0.0 0.0
0.0 0.0 0.0
0.0 0.0 0.0
0.0 0.0 0.0
0.0 0.0 0.0
0.0 0.0 0.0
0.0 0.0 0.0
0.0 0.0 0.0
0.0 0.0 0.0
0.0 0.0 0.0
0.0 0.0 0.0
0.0 0.0 0.0
0.0 0.0 0.0
0.0 0.0 0.0
0.0 0.0 0.0
0.0 0.0 0.0
0.0 0.0 0.0
0.0 0.0 0.0
0.0 0.0 0.0
0.0 0.0 0.0
0.0 0.0 0.0
0.0 0.0 0.0
0.0 0.0 0.0
0.0 0.0 0.0
0.0 0.0 0.0
0.0 0.0 0.0
0.0 0.0 0.0
0.0 0.0 0.0
0.0 0.0 0.0
0.0 0.0 0.0
0.0 0.0 0.0
0.0 0.0 0.0
0.0 0.0 0.0
0.0 0.0 0.0
0.0 0.0 0.0
0.0 0.0 0.0
0.0 0.0 0.0
0.0 0.0 0.0
0.0 0.0 0.0
0.0 0.0 0.0
0.0 0.0 0.0
0.0 0.0 0.0
0.0 0.0 0.0
0.0 0.0 0.0
0.0 0.0 0.0
0.0 0.0 0.0
0.0 0.0 0.0
0.0 0.0 0.0
0.0 0.0 0.0
0.0 0.0 0.0
0.0 0.0 0.0
0.0 0.0 0.0
0.0 0.0 0.0
0.0 0.0 0.0
0.0 0.0 0.0
0.0 0.0 0.0
0.0 0.0 0.0
0.0 0.0 0.0
0.0 0.0 0.0
0.0 0.0 0.0
0.0 0.0 0.0
0.0 0.0 0.0
0.0 0.0 0.0
0.0 0.0 0.0
0.0 0.0 0.0
0.0 0.0 0.0
0.0 0.0 0.0
0.0 0.0 0.0
0.0 0.0 0.0
0.0 0.0 0.0
0.0 0.0 0.0
0.0 0.0 0.0
0.0 0.0 0.0
0.0 0.0 0.0
0.0 0.0 0.0
0.0 0.0 0.0
0.0 0.0 0.0
0.0 0.0 0.0
0.0 0.0 0.0
0.0 0.0 0.0
0.0 0.0 0.0
0.0 0.0 0.0
0.0 0.0 0.0
0.0 0.0 0.0
0.0 0.0 0.0
0.0 0.0 0.0
0.0 0.0 0.0
0.0 0.0 0.0
0.0 0.0 0.0
0.0 0.0 0.0
0.0 0.0 0.0
0.0 0.0 0.0
0.0 0.0 0.0
0.0 0.0 0.0
0.0 0.0 0.0
0.0 0.0 0.0
0.0 0.0 0.0
0.0 0.0 0.0
0.0 0.0 0.0
0.0 0.0 0.0
0.0 0.0 0.0
0.0 0.0 0.0
0.0 0.0 0.0
0.0 0.0 0.0
0.0 0.0 0.0
0.0 0.0 0.0
0.0 0.0 0.0
0.0 0.0 0.0
0.0 0.0 0.0
0.0 0.0 0.0
0.0 0.0 0.0
0.0 0.0 0.0
0.0 0.0 0.0
0.0 0.0 0.0
0.0 0.0 0.0
0.0 0.0 0.0
0.0 0.0 0.0
0.0 0.0 0.0
0.0 0.0 0.0
0.0 0.0 0.0
0.0 0.0 0.0
0.0 0.0 0.0
0.0 0.0 0.0
0.0 0.0 0.0
0.0 0.0 0.0
0.0 0.0 0.0
0.0 0.0 0.0
0.0 0.0 0.0
0.0 0.0 0.0
0.0 0.0 0.0
0.0 0.0 0.0
0.0 0.0 0.0
0.0 0.0 0.0
0.0 0.0 0.0
0.0 0.0 0.0
0.0 0.0 0.0
0.0 0.0 0.0
0.0 0.0 0.0
0.0 0.0 0.0
0.0 0.0 0.0
0.0 0.0 0.0
0.0 0.0 0.0
0.0 0.0 0.0
0.0 0.0 0.0
0.0 0.0 0.0
0.0 0.0 0.0
0.0 0.0 0.0
0.0 0.0 0.0
0.0 0.0 0.0
0.0 0.0 0.0
0.0 0.0 0.0
0.0 0.0 0.0
0.0 0.0 0.0
0.0 0.0 0.0
0.0 0.0 0.0
0.0 0.0 0.0
0.0 0.0 0.0
0.0 0.0 0.0
0.0 0.0 0.0
0.0 0.0 0.0
0.0 0.0 0.0
0.0 0.0 0.0
0.0 0.0 0.0
0.0 0.0 0.0
0.0 0.0 0.0
0.0 0.0 0.0
0.0 0.0 0.0
0.0 0.0 0.0
0.0 0.0 0.0
0.0 0.0 0.0
0.0 0.0 0.0
0.0 0.0 0.0
0.0 0.0 0.0
0.0 0.0 0.0
0.0 0.0 0.0
0.0 0.0 0.0
0.0 0.0 0.0
0.0 0.0 0.0
0.0 0.0 0.0
0.0 0.0 0.0
0.0 0.0 0.0
0.0 0.0 0.0
0.0 0.0 0.0
0.0 0.0 0.0
0.0 0.0 0.0
0.0 0.0 0.0
0.0 0.0 0.0
0.0 0.0 0.0
0.0 0.0 0.0
0.0 0.0 0.0
0.0 0.0 0.0
0.0 0.0 0.0
0.0 0.0 0.0
0.0 0.0 0.0
0.0 0.0 0.0
0.0 0.0 0.0
0.0 0.0 0.0
0.0 0.0 0.0
0.933951020533 -0.000495806223692 0.0
1.15797310201 -0.00308740647743 0.0
1.15064385768 -7.44257627418e-06 0.0
1.14760135926 0.00010842534785 0.0
0.494226816847 -0.00308134046098 0.0
1.07113582674 0.00632916093617 0.0
1.1520298076 -0.00010050438368 0.0
1.14807048706 -0.000135149679069 0.0
1.14798183407 1.58830573616e-05 0.0
1.14677829599 0.0 0.0
1.14622488749 0.0 0.0
1.14583000736 0.0 0.0
1.14531526155 0.0 0.0
1.14405084732 0.0 0.0
1.14332706018 0.0 0.0
1.14270230594 0.0 0.0
1.14213995389 0.0 0.0
1.14198486704 0.0 0.0
1.14204879695 0.0 0.0
1.14205476767 0.0 0.0
1.14221065997 0.0 0.0
1.14236863295 0.0 0.0
1.14236783523 0.0 0.0
1.14203118915 0.0 0.0
1.14208697472 0.0 0.0
1.14242277377 0.0 0.0
1.14203726016 0.0 0.0
1.14205949327 0.0 0.0
1.14241119313 0.0 0.0
1.14201249316 0.0 0.0
1.14204646182 0.0 0.0
1.14239343078 0.0 0.0
1.14199100248 0.0 0.0
1.1420209317 0.0 0.0
1.14235955784 0.0 0.0
1.141948904 0.0 0.0
1.14197002974 0.0 0.0
1.14230667506 0.0 0.0
1.14189775818 0.0 0.0
1.14190713624 0.0 0.0
1.14219691626 0.0 0.0
1.14171191245 0.0 0.0
1.1416556291 0.0 0.0
1.14191378413 0.0 0.0
1.14138646599 0.0 0.0
1.14130663252 0.0 0.0
1.1416105766 0.0 0.0
1.14094139252 0.0 0.0
1.14064131705 0.0 0.0
1.1411921736 0.0 0.0
1.14079195998 0.0 0.0
1.1406126787 0.0 0.0
1.14132075054 0.0 0.0
1.1411546446 0.0 0.0
1.14129960796 0.0 0.0
1.14243211996 0.0 0.0
1.14272317558 0.0 0.0
1.14354319289 0.0 0.0
1.14594531525 0.0 0.0
1.1478769194 0.0 0.0
1.1496208821 0.0 0.0
1.15074071659 0.0 0.0
1.15080997225 0.0 0.0
1.14885422644 0.0 0.0
1.14602214888 0.0 0.0
1.14343749676 0.0 0.0
1.14199813286 0.0 0.0
1.14052403286 0.0 0.0
1.13985002791 0.0 0.0
1.14038093303 0.0 0.0
1.14044781854 0.0 0.0
1.14085966038 0.0 0.0
1.14244110022 0.0 0.0
1.14347309322 0.0 0.0
1.14556488503 0.0 0.0
1.15023142597 0.0 0.0
1.15476530199 0.0 0.0
1.15878137953 0.0 0.0
1.16162914851 0.0 0.0
1.16243299755 0.0 0.0
1.16013913762 0.0 0.0
1.15670601401 0.0 0.0
1.15257066297 0.0 0.0
1.14876256478 0.0 0.0
1.14629047331 0.0 0.0
1.14366210784 0.0 0.0
1.14211719255 0.0 0.0
1.14180226373 0.0 0.0
1.14178908622 0.0 0.0
1.14112808203 0.0 0.0
1.14174690903 0.0 0.0
1.14292089097 0.0 0.0
1.14350199982 0.0 0.0
1.14516612809 0.0 0.0
1.14672291752 0.0 0.0
1.14681934021 0.0 0.0
1.1471298999 0.0 0.0
1.1467577921 0.0 0.0
1.14523833617 0.0 0.0
1.14435123033 0.0 0.0
1.13780753681 0.0 0.0
1.12031697268 0.0 0.0
1.09533606156 0.0 0.0
1.07469099627 0.0 0.0
1.05850899837 0.0 0.0
1.03938472152 0.0 0.0
1.01910193254 0.0 0.0
1.00427450063 0.0 0.0
1.1478719236 0.0 0.0
1.14716471407 0.0 0.0
1.14688745604 0.0 0.0
1.1460217312 0.0 0.0
1.14516623252 0.0 0.0
1.14425991768 0.0 0.0
1.14361245279 0.0 0.0
1.14284919234 0.0 0.0
1.14248389142 0.0 0.0
1.14255455685 0.0 0.0
1.14247077654 0.0 0.0
1.14255482756 0.0 0.0
1.14285088676 0.0 0.0
1.14285916092 0.0 0.0
1.14298600728 0.0 0.0
1.14272640566 0.0 0.0
1.14306723395 0.0 0.0
1.14305621516 0.0 0.0
1.14271417739 0.0 0.0
1.14307120569 0.0 0.0
1.14304577205 0.0 0.0
1.14270046673 0.0 0.0
1.14305593827 0.0 0.0
1.14302431924 0.0 0.0
1.14267499715 0.0 0.0
1.14302335617 0.0 0.0
1.14298358114 0.0 0.0
1.14262644596 0.0 0.0
1.14296836769 0.0 0.0
1.14292981253 0.0 0.0
1.14256873854 0.0 0.0
1.14288072891 0.0 0.0
1.14277897774 0.0 0.0
1.14234493173 0.0 0.0
1.14260639079 0.0 0.0
1.14246766191 0.0 0.0
1.14201474303 0.0 0.0
1.14228152195 0.0 0.0
1.14213857882 0.0 0.0
1.14168747551 0.0 0.0
1.14187584844 0.0 0.0
1.14198668458 0.0 0.0
1.1416313522 0.0 0.0
1.14192965899 0.0 0.0
1.14223900389 0.0 0.0
1.14216288757 0.0 0.0
1.14283009658 0.0 0.0
1.14359188706 0.0 0.0
1.14407893677 0.0 0.0
1.14576689862 0.0 0.0
1.14798028462 0.0 0.0
1.14970920686 0.0 0.0
1.15134209551 0.0 0.0
1.15134199115 0.0 0.0
1.1502931263 0.0 0.0
1.1482171418 0.0 0.0
1.14551829918 0.0 0.0
1.143581097 0.0 0.0
1.14221863151 0.0 0.0
1.14105965845 0.0 0.0
1.14102387063 0.0 0.0
1.14138077614 0.0 0.0
1.14154062111 0.0 0.0
1.14258729925 0.0 0.0
1.14395680301 0.0 0.0
1.14548016291 0.0 0.0
1.14895835315 0.0 0.0
1.15362822686 0.0 0.0
1.15786260475 0.0 0.0
1.16153378176 0.0 0.0
1.16271004861 0.0 0.0
1.16176935437 0.0 0.0
1.15903565527 0.0 0.0
1.15527794568 0.0 0.0
1.15126719031 0.0 0.0
1.14800412974 0.0 0.0
1.14536327838 0.0 0.0
1.1439055732 0.0 0.0
1.14284238856 0.0 0.0
1.1427160337 0.0 0.0
1.1423528131 0.0 0.0
1.14231983379 0.0 0.0
1.1433018313 0.0 0.0
1.14417173095 0.0 0.0
1.14526117117 0.0 0.0
1.14690533353 0.0 0.0
1.14767733869 0.0 0.0
1.14781443413 0.0 0.0
1.14777587868 0.0 0.0
1.14670011691 0.0 0.0
1.14536169987 0.0 0.0
1.14167246352 0.0 0.0
1.12916860299 0.0 0.0
1.10742143415 0.0 0.0
1.08421464603 0.0 0.0
1.06668882017 0.0 0.0
1.0495841633 0.0 0.0
1.02915351285 0.0 0.0
1.01130714118 0.0 0.0
0.999332135444 0.0 0.0
1.0 0.0 0.0
1.0 0.0 0.0
1.0 0.0 0.0
1.0 0.0 0.0
1.0 0.0 0.0
1.0 0.0 0.0
1.0 0.0 0.0
1.0 0.0 0.0
1.0 0.0 0.0
1.16343645978 -0.0651092378632 0.0
1.2011872481 -0.0297305271816 0.0
1.16049966158 -0.00478879168751 0.0
1.15781772879 -0.00123317846743 0.0
1.15447066425 -0.00159891529321 0.0
1.15503452274 0.00112987417784 0.0
1.15495101653 0.00104268641211 0.0
1.15588550933 0.000849007416559 0.0
1.15566606796 0.00079654143115 0.0
1.15564675115 0.000775732741167 0.0
1.15561666069 0.000769399128414 0.0
1.15560058931 0.000751132657403 0.0
1.1556030397 0.000733904225259 0.0
1.155622725 0.000641674052455 0.0
1.1541354092 0.000142668879489 0.0
1.15362652151 7.26412084869e-05 0.0
1.15325041896 0.000292860613979 0.0
1.1526868424 0.00101169301631 0.0
1.15279115624 0.00146400331208 0.0
1.14541901817 -0.00139667507809 0.0
1.16065771805 -0.000438640119543 0.0
1.15185576197 0.00182934528359 0.0
1.15809748053 0.0108479712286 0.0
1.15707268781 0.00498583700882 0.0
1.15211053908 0.00279521340418 0.0
1.16014381709 -0.00503678273585 0.0
1.15194153429 0.00162986330819 0.0
1.16627927289 0.0208903872099 0.0
1.15290354959 -0.000508517085133 0.0
1.17834288619 -0.00448991981606 0.0
1.14823899814 -0.0059513102302 0.0
1.14924586872 -0.00769094176505 0.0
1.16054068196 -0.0145607624253 0.0
1.15313823778 -0.00385220672968 0.0
1.1968155902 -0.141571615118 0.0
1.14386801732 -0.00163038002602 0.0
1.14299782314 -0.000151789210183 0.0
1.16757033227 0.00389140581568 0.0
1.14504877809 0.00242498184942 0.0
1.14778704075 0.00736115952219 0.0
1.14923177113 -0.00278726883742 0.0
1.15010131551 0.00126700880357 0.0
1.14342840041 0.00150443020776 0.0
1.14144738166 0.000341214515291 0.0
1.15526823041 0.000691849823992 0.0
1.14587226755 0.00338369602033 0.0
1.14389023677 0.00088358467838 0.0
1.14294004749 0.000187550407588 0.0
1.14296077931 -4.27420715799e-05 0.0
1.1432254423 -0.000188601927002 0.0
1.14365316451 -0.000365691611342 0.0
1.14384776379 -0.000239405812052 0.0
1.21322488871 -0.0425863900975 0.0
1.14390878013 -0.000146719159549 0.0
1.14393817653 -0.000153916885041 0.0
1.14396075153 -0.000143347231419 0.0
1.14349119017 -0.0192252044033 0.0
1.14397980576 -0.0001362067099 0.0
1.14133470603 0.00173999656562 0.0
1.11983753866 -0.0296213663297 0.0
1.14398556684 -0.000129948814942 0.0
1.14394350757 -1.73551382922e-05 0.0
1.13345007868 -0.00267171821642 0.0
1.1436015267 0.000117182466157 0.0
1.13224271217 -0.00175113137049 0.0
1.12681493699 -0.00166512306934 0.0
1.12783331021 -0.000715969425548 0.0
1.12288213109 0.0126400238132 0.0
1.12531732662 -0.00238470211121 0.0
1.12482035496 0.0049049676013 0.0
1.11999232305 0.012596046808 0.0
1.12551850063 0.00297031974915 0.0
1.12567651837 0.00229996091261 0.0
1.12750581481 0.00149264189539 0.0
1.12668797868 0.00423456300191 0.0
1.12727679764 0.00526323177546 0.0
1.13036138899 0.00145221013763 0.0
1.13231329627 0.000233312964253 0.0
1.13246802611 8.44176107645e-05 0.0
1.13239056778 -0.000361409931013 0.0
1.1334921267 -0.000857507595084 0.0
1.13361138262 -9.85756736719e-05 0.0
1.13350612486 -4.09024787035e-05 0.0
1.13348096542 -5.05895156112e-05 0.0
1.13348300507 -4.71107817925e-05 0.0
1.14330515914 -0.000667231648963 0.0
1.13350386818 -3.87711375004e-05 0.0
1.13355528959 -3.08913282459e-05 0.0
1.13361372345 9.81861652009e-05 0.0
1.13344981864 0.000911598983539 0.0
1.1460530356 -0.00181326424848 0.0
1.03227759926 -0.0330515936848 0.0
1.14796481597 -0.00111501390869 0.0
1.15007961602 -0.00435073236497 0.0
1.16228777677 -0.00526727575876 0.0
1.14894666763 -0.00565242957093 0.0
1.14255386715 -0.00265359260407 0.0
1.09683566418 -0.00793757731711 0.0
1.12293110135 -0.0101348895636 0.0
1.11410382376 -0.012594868052 0.0
1.10344837726 -0.0170047217698 0.0
1.18213469578 -0.070558591735 0.0
1.06606148788 -0.00476406331986 0.0
1.14793758762 -0.00114209022134 0.0
1.14216112424 -0.000112181186194 0.0
1.14209733167 4.07600537065e-05 0.0
1.12414014464 -0.0235648572139 0.0
1.14303468721 -7.69609301531e-05 0.0
1.0711765633 -0.0253845866851 0.0
1.14257342784 0.000481015636195 0.0
1.14345018487 1.4480043927e-05 0.0
1.14359709913 7.42850032265e-05 0.0
1.14408228132 0.00131101154215 0.0
1.03419145762 -0.000539686434978 0.0
1.14363856971 9.40779118298e-05 0.0
1.15154702489 0.00287813720031 0.0
1.14367825591 0.000108367309252 0.0
1.14370089636 0.000115725640507 0.0
1.14457129491 -0.00408409677876 0.0
1.14371242592 0.000124177448283 0.0
1.14365453763 0.000170595106858 0.0
1.14353508385 0.000257687952188 0.0
1.02239559198 -0.00163843824396 0.0
1.14079900209 -0.000559862297153 0.0
1.14314184546 0.000161082218635 0.0
1.04419018482 -0.00374787684058 0.0
1.00375071965 0.00148762832848 0.0
1.14401011414 -0.000766988424682 0.0
1.02732767064 0.000133615200141 0.0
1.14178369643 0.000864833258089 0.0
1.14915652864 -0.000158128409239 0.0
1.02685595482 -0.000106767357331 0.0
1.02654557933 -0.000141799900344 0.0
1.02627810224 -0.000131418623455 0.0
1.02604364417 -0.000115536835198 0.0
1.14439454302 0.00261598726247 0.0
1.14625191851 0.00182655391483 0.0
1.02584325616 -0.000103572623761 0.0
1.02565345394 -7.94513074786e-05 0.0
1.02558600157 -0.000218483214523 0.0
1.02656400279 -0.00122155422996 0.0
1.02717481142 -0.00050552481913 0.0
1.15981377529 0.00633377614192 0.0
1.14244420662 0.000534508549876 0.0
1.02699990066 -0.000339206292079 0.0
1.02651358196 -0.000325951725458 0.0
0.84994889857 0.00238496987425 0.0
1.02340402154 0.000184900992507 0.0
1.00459803683 -0.00114206994789 0.0
1.0212332078 0.000977697826858 0.0
1.01014447947 0.00505337083928 0.0
1.01733337643 0.00113139388957 0.0
1.00800938279 0.00953289490715 0.0
1.02039700342 -9.89520427571e-05 0.0
0.985821262642 0.0211402184595 0.0
1.01947854624 -0.000728831962597 0.0
0.766154896502 0.00155645950845 0.0
0.908231718457 -0.00184262042815 0.0
0.88057609298 -0.00203025515611 0.0
1.15548313013 -0.00366162999583 0.0
1.1428217269 -0.00068798349304 0.0
1.14536087035 -0.00265724523634 0.0
1.16524796262 -0.00102741588364 0.0
1.14454899606 -0.00311526244415 0.0
1.15247280379 -0.00164588677486 0.0
0.989786055016 -0.0147880303863 0.0
1.11641609428 -0.0263641345399 0.0
1.14605863014 -0.00105201904988 0.0
1.03778716764 -0.0513151951545 0.0
1.1579994645 -0.00281746129599 0.0
1.15288505743 -0.000217770458902 0.0
1.03954647775 -0.0178546193975 0.0
0.895585538888 0.0020632805105 0.0
1.1008481668 -0.0725387937875 0.0
1.03878858192 -0.0643091065099 0.0
0.948521336666 -0.00734858743056 0.0
1.14219102643 -8.77568645046e-05 0.0
1.14202421567 -2.08296802489e-05 0.0
1.14257940576 -0.000115014780225 0.0
1.1422462505 0.000187066727993 0.0
1.27604984862 -0.289412199752 0.0
1.14357512144 0.00054602053356 0.0
1.14286610456 -5.59117623349e-05 0.0
1.14814969541 0.00218053561799 0.0
1.14301112962 1.06047078633e-05 0.0
1.14305747349 9.98785801706e-06 0.0
1.14823241016 -0.000652459013644 0.0
1.14125242625 0.000376046589992 0.0
1.09960817375 -0.016328328552 0.0
1.14363475475 0.00114129983854 0.0
1.14725369445 0.00106175110785 0.0
1.14309349648 1.83541374764e-05 0.0
1.15368788012 0.00458532119398 0.0
1.14314965933 0.000781100584758 0.0
1.13855104194 -0.00614498944653 0.0
1.14261260247 -0.000284685397875 0.0
1.1431136101 2.23695625388e-05 0.0
1.14311997708 2.6471529062e-05 0.0
1.14306794644 8.6687311328e-05 0.0
1.1427757865 0.00010457254224 0.0
1.14256808486 -0.000189319022744 0.0
1.1443310227 -0.000884553431381 0.0
1.15325695712 -0.0078961798275 0.0
0.830913780861 0.00610004855023 0.0
0.842231431379 -0.00881362149248 0.0
0.887715598824 -0.0194494005171 0.0
0.831549967449 0.00320318260406 0.0
0.863102738261 0.00252026078588 0.0
0.862414736507 0.00231154476258 0.0
0.862301670828 0.00225188698762 0.0
1.17352284405 -0.00992000252259 0.0
0.862291264734 0.00224367939715 0.0
0.862323799506 0.00223510472076 0.0
0.862380753787 0.00222708929946 0.0
1.14893359442 0.0014563950606 0.0
1.15170002836 -0.00862565618251 0.0
0.862462873245 0.00222658607467 0.0
1.15137646402 -0.00139680246331 0.0
0.862588173885 0.00217720725301 0.0
0.863633489877 0.00142234114847 0.0
0.865496287271 0.00288200187456 0.0
0.865779791141 0.0030536395042 0.0
1.15010433085 0.00210558842742 0.0
0.865948881581 0.0030408750759 0.0
1.15041425754 0.00177563778309 0.0
0.868513530585 0.00133227353103 0.0
0.864672708469 0.00356227080246 0.0
1.15035703781 0.00168790630736 0.0
0.871046860465 -0.00415570904017 0.0
1.15033577198 0.00167663051856 0.0
0.874569222051 -0.000103927928599 0.0
0.858802862034 0.00652520185682 0.0
1.15030150653 0.00167203195018 0.0
0.875159029254 -0.00578526140089 0.0
0.817754439506 0.00258051445681 0.0
1.15027784704 0.00166227512631 0.0
0.84890332459 -0.00590640733865 0.0
1.15026577841 0.00167753385243 0.0
1.15029300158 0.00157081962061 0.0
0.866178211844 0.0044318464822 0.0
1.14962790283 0.000997137714606 0.0
1.14854287822 0.00103351257458 0.0
1.15550035179 -0.00376792253726 0.0
0.850214887629 -0.000165879369985 0.0
0.863730054763 0.00333263879228 0.0
1.14802556404 0.00119604618361 0.0
1.14779112577 0.00150088643047 0.0
0.865928602304 -0.00159863384581 0.0
0.850468421405 0.0115763876958 0.0
1.14800878694 0.00250006287245 0.0
0.867105875828 -0.00344556591609 0.0
0.765176750294 0.0044794054677 0.0
1.14919764668 0.00865830258117 0.0
1.16157681513 -0.00115648534267 0.0
0.85025576953 -0.00036216815838 0.0
1.14683860399 -0.00390921198448 0.0
1.14635938935 0.00217007112058 0.0
1.1475284408 0.00322981938259 0.0
1.15425879615 0.00175572808692 0.0
1.15175771142 0.0173764365986 0.0
1.14765077679 0.00191279453889 0.0
1.17854139525 0.00281880370246 0.0
1.14772165761 -0.00197567771278 0.0
1.14736072357 -0.00316111411923 0.0
1.17893968768 -0.0169554980766 0.0
1.18886953654 -0.0411644242508 0.0
1.17739134836 -0.0459690504517 0.0
1.14744081314 -0.000245552128139 0.0
1.16494267803 -0.00987667408283 0.0
1.15487306085 -0.00316516437689 0.0
1.14699790427 0.00111430007824 0.0
1.1735147692 0.0109382129886 0.0
1.14923808222 0.00605889342922 0.0
1.14715027468 0.00639952281273 0.0
1.15505183072 0.00276088846867 0.0
1.1472042615 0.000571790404356 0.0
0.871465065021 0.0029864806187 0.0
1.145715335 -7.2549216681e-05 0.0
0.875913259268 0.00232209043182 0.0
0.812821146968 0.00910581595705 0.0
0.838887743076 -0.00236532711499 0.0
1.16010530639 0.00364828859846 0.0
0.870484057662 0.00604418395062 0.0
0.872264269518 -0.000662928448913 0.0
1.14801319202 0.00175329996897 0.0
1.1480313762 -0.000254346724069 0.0
0.856715917379 0.00366735679948 0.0
0.877535181222 -0.00285081044739 0.0
1.14834654367 -0.00141079096253 0.0
1.14270642602 4.55659854891e-05 0.0
1.14852994941 -0.00163619971789 0.0
1.14861410401 -0.00235618904837 0.0
0.852866468886 0.00430826297918 0.0
1.15029031032 -0.00269461816066 0.0
1.15047699079 -0.00247988295943 0.0
1.15048363692 -0.00240818825166 0.0
1.15051881877 -0.00241311355894 0.0
1.15056674751 -0.00240740216605 0.0
1.15061964196 -0.00239771557885 0.0
1.1507320336 -0.00239348659979 0.0
1.14970768186 -0.00343755748221 0.0
1.15066442734 -0.00221596099521 0.0
1.15026886191 -0.0021037919499 0.0
1.15311928463 -0.00442269039312 0.0
1.14178157455 -0.000914474818837 0.0
1.1430803433 3.18692243022e-05 0.0
0.849965919085 0.00153371792018 0.0
0.869168885995 -0.00314417438335 0.0
0.871947367761 -0.00377529041922 0.0
0.872236337691 -0.00399029301357 0.0
0.87200640512 -0.00409510969777 0.0
1.1432037306 -4.87395456814e-05 0.0
0.872057941209 -0.0037365836986 0.0
0.869411007876 -0.00367196971563 0.0
0.868982404448 -0.00331146374737 0.0
0.868914973127 -0.00330502617946 0.0
0.868857356453 -0.00330772174339 0.0
0.868835179648 -0.00330875306324 0.0
1.14319352442 -5.92827964399e-05 0.0
0.868845168312 -0.00329878536622 0.0
0.868902084356 -0.00328096215798 0.0
0.869115279678 -0.0031907063074 0.0
0.875185694333 -0.000909309814496 0.0
1.14317614389 -6.73318964291e-05 0.0
1.14314765786 -7.462146262e-05 0.0
1.14781237155 -0.00273263990346 0.0
1.14309656436 -7.64595792611e-05 0.0
1.16231269266 -0.00209679475861 0.0
1.14368145091 -0.00290595245471 0.0
1.14301914282 -0.000113915235575 0.0
1.0065506678 -0.012395808029 0.0
1.0782920854 -0.0149372820392 0.0
1.14292256284 -0.000485167967738 0.0
1.14280962785 -0.000140765969648 0.0
1.21394287666 -0.0977811980942 0.0
1.14241636507 -9.30535511575e-05 0.0
1.14182361587 -4.31547648146e-05 0.0
1.15015561666 -0.00191416530766 0.0
1.1418488651 5.76481661848e-05 0.0
1.14270645306 0.000344322107354 0.0
1.14750322027 -0.000494642987549 0.0
1.14520337615 0.00125721679768 0.0
1.15162749099 0.000606382981736 0.0
1.1261542224 -0.0126389562489 0.0
1.14631874176 -0.0011251149315 0.0
1.14076856529 -8.36895679491e-06 0.0
1.16158153549 0.00190570050853 0.0
1.14332101704 -0.000707290313915 0.0
1.14232945143 0.000655901182231 0.0
1.14809452784 0.000413800174137 0.0
1.14445824235 8.87922474311e-05 0.0
1.14438103665 -2.16597500525e-05 0.0
1.143189819 -0.0013357222171 0.0
1.14448373264 9.36109916834e-05 0.0
1.14392774571 -0.000246616960858 0.0