# vtk DataFile Version 2.0
2D Simulation Python
ASCII
DATASET UNSTRUCTURED_GRID
FIELD FieldData 1
NODES 1 2 int
1422 2620

POINTS 1422 double
0.0 1.0 0.0
1.725 1.0 0.0
8.275 1.0 0.0
10.0 1.0 0.0
10.0 0.0 0.0
0.0 0.0 0.0
0.09583333333314978 1.0 0.0
0.1916666666663293 1.0 0.0
0.2874999999994224 1.0 0.0
0.3833333333324708 1.0 0.0
0.4791666666655263 1.0 0.0
0.574999999998553 1.0 0.0
0.6708333333315749 1.0 0.0
0.7666666666645966 1.0 0.0
0.8624999999976839 1.0 0.0
0.9583333333312576 1.0 0.0
1.054166666664865 1.0 0.0
1.149999999998384 1.0 0.0
1.245833333332023 1.0 0.0
1.341666666665662 1.0 0.0
1.437499999999301 1.0 0.0
1.533333333332819 1.0 0.0
1.629166666666443 1.0 0.0
1.824242424242242 1.0 0.0
1.92348484848444 1.0 0.0
2.022727272726717 1.0 0.0
2.121969696968978 1.0 0.0
2.221212121211135 1.0 0.0
2.320454545453434 1.0 0.0
2.419696969695623 1.0 0.0
2.518939393937826 1.0 0.0
2.618181818180112 1.0 0.0
2.717424242422235 1.0 0.0
2.816666666664341 1.0 0.0
2.915909090906411 1.0 0.0
3.015151515148588 1.0 0.0
3.1143939393908 1.0 0.0
3.213636363632884 1.0 0.0
3.312878787875129 1.0 0.0
3.412121212117286 1.0 0.0
3.511363636359531 1.0 0.0
3.610606060601614 1.0 0.0
3.709848484843827 1.0 0.0
3.809090909086003 1.0 0.0
3.90833333332816 1.0 0.0
4.007575757570265 1.0 0.0
4.106818181812215 1.0 0.0
4.20606060605463 1.0 0.0
4.305303030296804 1.0 0.0
4.404545454538924 1.0 0.0
4.503787878781365 1.0 0.0
4.603030303023349 1.0 0.0
4.702272727265711 1.0 0.0
4.80151515150799 1.0 0.0
4.900757575750005 1.0 0.0
4.999999999992499 1.0 0.0
5.099242424235156 1.0 0.0
5.198484848477834 1.0 0.0
5.297727272720327 1.0 0.0
5.396969696963127 1.0 0.0
5.496212121205663 1.0 0.0
5.595454545448268 1.0 0.0
5.694696969690998 1.0 0.0
5.79393939393367 1.0 0.0
5.89318181817668 1.0 0.0
5.992424242419174 1.0 0.0
6.09166666666213 1.0 0.0
6.190909090904857 1.0 0.0
6.290151515147423 1.0 0.0
6.389393939390537 1.0 0.0
6.488636363633031 1.0 0.0
6.587878787875884 1.0 0.0
6.687121212118713 1.0 0.0
6.786363636361205 1.0 0.0
6.885606060604342 1.0 0.0
6.984848484846887 1.0 0.0
7.084090909089381 1.0 0.0
7.183333333331875 1.0 0.0
7.282575757574369 1.0 0.0
7.381818181816861 1.0 0.0
7.481060606059355 1.0 0.0
7.580303030301849 1.0 0.0
7.679545454544343 1.0 0.0
7.778787878786837 1.0 0.0
7.878030303029329 1.0 0.0
7.977272727271822 1.0 0.0
8.076515151514705 1.0 0.0
8.175757575757507 1.0 0.0
8.370833333332062 1.0 0.0
8.46666666666447 1.0 0.0
8.562499999996877 1.0 0.0
8.658333333329285 1.0 0.0
8.754166666662387 1.0 0.0
8.84999999999549 1.0 0.0
8.945833333328592 1.0 0.0
9.041666666661694 1.0 0.0
9.137499999994796 1.0 0.0
9.233333333327899 1.0 0.0
9.329166666661424 1.0 0.0
9.42499999999549 1.0 0.0
9.52083333332944 1.0 0.0
9.616666666663775 1.0 0.0
9.712499999997572 1.0 0.0
9.808333333331985 1.0 0.0
9.904166666665859 1.0 0.0
10.0 0.8999999999995836 0.0
10.0 0.7999999999999998 0.0
10.0 0.7000000000006934 0.0
10.0 0.6000000000013869 0.0
10.0 0.5000000000020587 0.0
10.0 0.4000000000016644 0.0
10.0 0.3000000000012483 0.0
10.0 0.2000000000008322 0.0
10.0 0.100000000000416 0.0
9.9 0.0 0.0
9.799999999999999 0.0 0.0
9.7 0.0 0.0
9.6 0.0 0.0
9.499999999999998 0.0 0.0
9.399999999999999 0.0 0.0
9.299999999999999 0.0 0.0
9.2 0.0 0.0
9.099999999999998 0.0 0.0
8.999999999999998 0.0 0.0
8.899999999999999 0.0 0.0
8.799999999999997 0.0 0.0
8.699999999999998 0.0 0.0
8.599999999999998 0.0 0.0
8.499999999999996 0.0 0.0
8.399999999999997 0.0 0.0
8.299999999999997 0.0 0.0
8.199999999999998 0.0 0.0
8.099999999999998 0.0 0.0
7.999999999999997 0.0 0.0
7.899999999999997 0.0 0.0
7.799999999999997 0.0 0.0
7.699999999999998 0.0 0.0
7.599999999999998 0.0 0.0
7.499999999999998 0.0 0.0
7.399999999999997 0.0 0.0
7.299999999999997 0.0 0.0
7.199999999999998 0.0 0.0
7.099999999999998 0.0 0.0
6.999999999999997 0.0 0.0
6.899999999999998 0.0 0.0
6.799999999999997 0.0 0.0
6.699999999999998 0.0 0.0
6.599999999999998 0.0 0.0
6.499999999999998 0.0 0.0
6.399999999999997 0.0 0.0
6.299999999999998 0.0 0.0
6.199999999999998 0.0 0.0
6.099999999999998 0.0 0.0
5.999999999999997 0.0 0.0
5.899999999999998 0.0 0.0
5.799999999999998 0.0 0.0
5.699999999999998 0.0 0.0
5.599999999999998 0.0 0.0
5.499999999999998 0.0 0.0
5.399999999999999 0.0 0.0
5.299999999999999 0.0 0.0
5.199999999999998 0.0 0.0
5.099999999999999 0.0 0.0
4.999999999999999 0.0 0.0
4.899999999999998 0.0 0.0
4.799999999999999 0.0 0.0
4.699999999999998 0.0 0.0
4.599999999999999 0.0 0.0
4.499999999999998 0.0 0.0
4.399999999999999 0.0 0.0
4.299999999999998 0.0 0.0
4.199999999999999 0.0 0.0
4.099999999999998 0.0 0.0
3.999999999999999 0.0 0.0
3.899999999999999 0.0 0.0
3.799999999999999 0.0 0.0
3.699999999999999 0.0 0.0
3.599999999999999 0.0 0.0
3.499999999999997 0.0 0.0
3.399999999999998 0.0 0.0
3.299999999999999 0.0 0.0
3.199999999999998 0.0 0.0
3.099999999999998 0.0 0.0
2.999999999999999 0.0 0.0
2.899999999999999 0.0 0.0
2.799999999999998 0.0 0.0
2.699999999999998 0.0 0.0
2.599999999999998 0.0 0.0
2.499999999999999 0.0 0.0
2.399999999999999 0.0 0.0
2.299999999999999 0.0 0.0
2.199999999999999 0.0 0.0
2.1 0.0 0.0
1.999999999999998 0.0 0.0
1.899999999999999 0.0 0.0
1.799999999999999 0.0 0.0
1.699999999999999 0.0 0.0
1.6 0.0 0.0
1.5 0.0 0.0
1.4 0.0 0.0
1.299999999999999 0.0 0.0
1.199999999999999 0.0 0.0
1.099999999999998 0.0 0.0
0.9999999999999982 0.0 0.0
0.9000000000000004 0.0 0.0
0.7999999999999989 0.0 0.0
0.6999999999999993 0.0 0.0
0.6000000000000014 0.0 0.0
0.5 0.0 0.0
0.3999999999999986 0.0 0.0
0.2999999999999989 0.0 0.0
0.1999999999999993 0.0 0.0
0.09999999999999964 0.0 0.0
0.0 0.09999999999981467 0.0
0.0 0.1999999999995579 0.0
0.0 0.2999999999992664 0.0
0.0 0.3999999999989749 0.0
0.0 0.4999999999986943 0.0
0.0 0.5999999999989468 0.0
0.0 0.69999999999921 0.0
0.0 0.7999999999994734 0.0
0.0 0.8999999999997368 0.0
0.5318668951527092 0.5357351118158038 0.0
9.448561269077192 0.5357351118158153 0.0
8.311518767443943 0.5267147409412871 0.0
1.6689093967906372 0.5267147409412339 0.0
8.887019733144902 0.5429682226888783 0.0
1.0934084310850791 0.5429682226877084 0.0
7.802044285797006 0.5487679077582874 0.0
2.163431567765037 0.5218520306223272 0.0
4.945255542410998 0.5427806128705291 0.0
5.532223247546104 0.5433355027746665 0.0
4.348959178548571 0.5434048305706626 0.0
6.127829121944529 0.5437377072211045 0.0
3.753359891383885 0.5437642494847784 0.0
6.729400708192903 0.5381868356173953 0.0
3.158439678714037 0.5258716521317999 0.0
7.2286662643612996 0.5238594554617927 0.0
2.661343714053231 0.5328427706126904 0.0
8.600630748780855 0.6936533873925763 0.0
0.8124780165843644 0.693562604389476 0.0
9.167950147644126 0.6935626043899937 0.0
1.379797415450294 0.6936533873915791 0.0
5.238320142716888 0.6875052528714342 0.0
4.64807800116628 0.6849236258733382 0.0
5.8285339479551075 0.6849696794545029 0.0
4.052654008091956 0.6849796760060672 0.0
6.423976933536931 0.685026979742031 0.0
3.457208397564947 0.6850360806280542 0.0
7.529878965872522 0.691485046437349 0.0
9.175550067186132 0.35034113176192533 0.0
0.8048780970437559 0.35034113176217535 0.0
1.3864910615569161 0.354907579689659 0.0
8.593937102677252 0.35490757968936454 0.0
7.534675772040309 0.3616337563804543 0.0
6.424541887516275 0.3519982587055031 0.0
3.456646323745892 0.35204160912346094 0.0
4.05486380938806 0.3538017206068798 0.0
5.826339167841484 0.3538166267764049 0.0
4.643280801721653 0.33988571213709723 0.0
5.241356792482887 0.3532835369500229 0.0
8.062626055973112 0.3359499233728595 0.0
1.90828919988656 0.33294786485125993 0.0
8.069232898035942 0.7177737294331415 0.0
1.9174301473504711 0.7076473005554492 0.0
6.975794396261934 0.7149604050811907 0.0
2.4202390211082108 0.3383489069607699 0.0
6.9876247952417145 0.33418203719287254 0.0
2.908731844348366 0.3416034195063402 0.0
2.413327315723541 0.7195629533889368 0.0
2.910591565796025 0.7178566728931937 0.0
9.689267906677092 0.7229789608739703 0.0
0.2911602575567984 0.7229789608757788 0.0
9.686523552677182 0.3258088266661977 0.0
0.29390461155687575 0.32580882666615385 0.0
8.304442688739403 0.7695950710673229 0.0
1.6759854754953512 0.7695950710677514 0.0
8.871491603837004 0.7776449939660719 0.0
1.0771468581725532 0.7776472258546819 0.0
0.5722623361132846 0.7753454157551329 0.0
9.408165828115905 0.7753454157552186 0.0
8.851537518383248 0.281889830692929 0.0
1.128890645848968 0.281889830693275 0.0
8.357367075249503 0.2734131153934276 0.0
1.6230610889823363 0.2734131153938233 0.0
0.5494260367512118 0.26110660828344145 0.0
9.431002127479635 0.26110660828384996 0.0
5.589118231289919 0.2879246925758027 0.0
3.714298286999736 0.27642650601649954 0.0
4.2920410471075305 0.2879201593636142 0.0
6.166847393677608 0.27642242779070103 0.0
5.007093074440956 0.769859357230544 0.0
5.477930116210876 0.765956603950902 0.0
4.409234458157721 0.7700098299788797 0.0
6.067386381760392 0.7703351016396158 0.0
3.81381194722295 0.7703412018703778 0.0
6.685309361270824 0.7869469441008095 0.0
3.197102729884203 0.7872497304736172 0.0
7.768932453035893 0.27642969611481194 0.0
7.26511723392559 0.7871540941405082 0.0
2.170452891935785 0.7676575698411638 0.0
7.795902155001757 0.7795575529732334 0.0
4.892017236532308 0.2853501236547813 0.0
7.278008722187417 0.2724063956006826 0.0
3.201134766736611 0.2759955759181241 0.0
6.680008232261436 0.27600100835141583 0.0
2.146250989763409 0.240958919178332 0.0
2.658319336557124 0.27540364241186804 0.0
2.657437629052683 0.7920011644658528 0.0
0.20451214560728156 0.5295444845092875 0.0
9.775916018628447 0.5295444845095165 0.0
3.609099054856388 0.8189852276581411 0.0
6.272096896186776 0.8189862273665757 0.0
4.204489394334997 0.8189914185902203 0.0
5.676707732734268 0.818992495221248 0.0
4.799861551668586 0.8190029957518272 0.0
5.4025338984595095 0.2283388337820702 0.0
4.47837810788547 0.22812208943024187 0.0
5.079841066224682 0.22745408484031338 0.0
6.0023517233046535 0.2290543313194242 0.0
3.8787985931883737 0.22908765155917532 0.0
0.9403920673320489 0.2191861116193608 0.0
9.040036096899136 0.21918611161927481 0.0
6.331049367989258 0.5177457961762019 0.0
3.550142427333891 0.5177667694330572 0.0
[...]
POINT_DATA 1422
VECTORS vector double
1.0 0.0 0.0
0.0 0.0 0.0
0.0 0.0 0.0
0.0 0.0 0.0
1.0912728176 0.0 0.0
1.0 0.0 0.0
0.0 0.0 0.0
0.0 0.0 0.0
0.0 0.0 0.0
0.0 0.0 0.0
0.0 0.0 0.0
0.0 0.0 0.0
0.0 0.0 0.0
0.0 0.0 0.0
0.0 0.0 0.0
0.0 0.0 0.0
0.0 0.0 0.0
0.0 0.0 0.0
0.0 0.0 0.0
0.0 0.0 0.0
0.0 0.0 0.0
0.0 0.0 0.0
0.0 0.0 0.0
0.0 0.0 0.0
0.0 0.0 0.0
0.0 0.0 0.0
0.0 0.0 0.0
0.0 0.0 0.0
0.0 0.0 0.0
0.0 0.0 0.0
0.0 0.0 0.0
0.0 0.0 0.0
0.0 0.0 0.0
0.0 0.0 0.0
0.0 0.0 0.0
0.0 0.0 0.0
0.0 0.0 0.0
0.0 0.0 0.0
0.0 0.0 0.0
0.0 0.0 0.0
0.0 0.0 0.0
0.0 0.0 0.0
0.0 0.0 0.0
0.0 0.0 0.0
0.0 0.0 0.0
0.0 0.0 0.0
0.0 0.0 0.0
0.0 0.0 0.0
0.0 0.0 0.0
0.0 0.0 0.0
0.0 0.0 0.0
0.0 0.0 0.0
0.0 0.0 0.0
0.0 0.0 0.0
0.0 0.0 0.0
0.0 0.0 0.0
0.0 0.0 0.0
0.0 0.0 0.0
0.0 0.0 0.0
0.0 0.0 0.0
0.0 0.0 0.0
0.0 0.0 0.0
0.0 0.0 0.0
0.0 0.0 0.0
0.0 0.0 0.0
0.0 0.0 0.0
0.0 0.0 0.0
0.0 0.0 0.0
0.0 0.0 0.0
0.0 0.0 0.0
0.0 0.0 0.0
0.0 0.0 0.0
0.0 0.0 0.0
0.0 0.0 0.0
0.0 0.0 0.0
0.0 0.0 0.0
0.0 0.0 0.0
0.0 0.0 0.0
0.0 0.0 0.0
0.0 0.0 0.0
0.0 0.0 0.0
0.0 0.0 0.0
0.0 0.0 0.0
0.0 0.0 0.0
0.0 0.0 0.0
0.0 0.0 0.0
0.0 0.0 0.0
0.0 0.0 0.0
0.0 0.0 0.0
0.0 0.0 0.0
0.0 0.0 0.0
0.0 0.0 0.0
0.0 0.0 0.0
0.0 0.0 0.0
0.0 0.0 0.0
0.0 0.0 0.0
0.0 0.0 0.0
0.0 0.0 0.0
0.0 0.0 0.0
0.0 0.0 0.0
0.0 0.0 0.0
0.0 0.0 0.0
0.0 0.0 0.0
0.0 0.0 0.0
0.0 0.0 0.0
0.705657684804 0.0628002686486 0.0
1.03383234696 0.0113367250397 0.0
1.08713172423 0.00145251962122 0.0
1.08891395244 0.000926699138898 0.0
1.09052763959 0.000374601937906 0.0
1.0910878011 0.00033479804057 0.0
1.09164298761 7.56108740503e-05 0.0
1.09200296011 2.05834679179e-05 0.0
1.09230813896 1.11603392566e-05 0.0
1.09237808771 0.0 0.0
1.09237943686 0.0 0.0
1.09270180044 0.0 0.0
1.09316105627 0.0 0.0
1.09332615139 0.0 0.0
1.09383768004 0.0 0.0
1.09418559419 0.0 0.0
1.0945691523 0.0 0.0
1.09500344338 0.0 0.0
1.09538024021 0.0 0.0
1.09560944043 0.0 0.0
1.09611538917 0.0 0.0
1.09649948736 0.0 0.0
1.09672381363 0.0 0.0
1.09705556623 0.0 0.0
1.09720039249 0.0 0.0
1.09742477937 0.0 0.0
1.09771231135 0.0 0.0
1.09778083927 0.0 0.0
1.0977771235 0.0 0.0
1.09782673505 0.0 0.0
1.09760018817 0.0 0.0
1.09714382897 0.0 0.0
1.09671913276 0.0 0.0
1.09615837074 0.0 0.0
1.09548532086 0.0 0.0
1.09495968862 0.0 0.0
1.09432812673 0.0 0.0
1.09400299115 0.0 0.0
1.09376310233 0.0 0.0
1.09360269162 0.0 0.0
1.09347453873 0.0 0.0
1.09330799021 0.0 0.0
1.09307268528 0.0 0.0
1.09265168183 0.0 0.0
1.09230185116 0.0 0.0
1.09180844654 0.0 0.0
1.09107616757 0.0 0.0
1.09144391269 0.0 0.0
1.09112691901 0.0 0.0
1.09117134939 0.0 0.0
1.09106887115 0.0 0.0
1.09109638918 0.0 0.0
1.09079086418 0.0 0.0
1.0912007526 0.0 0.0
1.09129960148 0.0 0.0
1.09141526026 0.0 0.0
1.09163453348 0.0 0.0
1.0919119468 0.0 0.0
1.09224723674 0.0 0.0
1.09216896 0.0 0.0
1.09287000619 0.0 0.0
1.09325609848 0.0 0.0
1.09362148699 0.0 0.0
1.09384903232 0.0 0.0
1.09370982845 0.0 0.0
1.0940401323 0.0 0.0
1.09403795599 0.0 0.0
1.09422986081 0.0 0.0
1.09442493385 0.0 0.0
1.09451170834 0.0 0.0
1.09486857955 0.0 0.0
1.09457713943 0.0 0.0
1.09509005309 0.0 0.0
1.09530081157 0.0 0.0
1.09534763712 0.0 0.0
1.09520518167 0.0 0.0
1.09499818833 0.0 0.0
1.09442541103 0.0 0.0
1.0939470236 0.0 0.0
1.09334620927 0.0 0.0
1.09270775374 0.0 0.0
1.09234559027 0.0 0.0
1.09203641135 0.0 0.0
1.0917256794 0.0 0.0
1.0916417557 0.0 0.0
1.09186646172 0.0 0.0
1.09205983353 0.0 0.0
1.09218716725 0.0 0.0
1.09240327036 0.0 0.0
1.09263584755 0.0 0.0
1.09289888898 0.0 0.0
1.09300519416 0.0 0.0
1.0931440035 0.0 0.0
1.09309151577 0.0 0.0
1.09275485986 0.0 0.0
1.09241060141 0.0 0.0
1.09130337042 0.0 0.0
1.0892629357 0.0 0.0
1.08721311364 0.0 0.0
1.08423196184 0.0 0.0
1.08141472822 0.0 0.0
1.07809665252 0.0 0.0
1.07426936737 0.0 0.0
1.06591008232 0.0 0.0
1.05583785546 0.0 0.0
1.02995047121 0.0 0.0
1.01083124576 0.0 0.0
1.00335578091 0.0 0.0
1.0 0.0 0.0
1.0 0.0 0.0
1.0 0.0 0.0
1.0 0.0 0.0
1.0 0.0 0.0
1.0 0.0 0.0
1.0 0.0 0.0
1.0 0.0 0.0
1.0 0.0 0.0
1.09501495091 -0.0643180508535 0.0
1.0923159173 0.00311937960721 0.0
1.09538726628 0.00214740038088 0.0
1.09182351568 0.00249331624206 0.0
1.09557032654 0.00387973362379 0.0
1.10043087019 -0.00347822767522 0.0
1.10050721962 -0.00117820020531 0.0
1.09206757028 0.00257519652376 0.0
1.09231497461 0.00477601914155 0.0
1.09220095771 -0.00026696478409 0.0
1.09395655369 0.00189044456824 0.0
1.08689679316 -0.000251117237686 0.0
1.09232321648 0.00298369307641 0.0
1.09681444741 0.00140550434874 0.0
1.09786795768 -0.00337821408573 0.0
1.0909157826 -0.00450202580789 0.0
1.08952080088 -0.00212187519757 0.0
1.10332596199 -0.00869058479937 0.0
1.11708079469 -0.0217464892623 0.0
1.09296981133 -0.00376114029101 0.0
1.10000519099 -0.0040102382547 0.0
1.08408343545 -0.00671080375431 0.0
1.0949973323 -0.00707303234966 0.0
1.09145127055 0.00104387566152 0.0
1.09417960462 -0.00876878427212 0.0
1.0926876917 -0.0148968880412 0.0
1.09947445703 0.00200488996929 0.0
1.09622108113 -0.00974951585806 0.0
1.09463272094 0.00140980629318 0.0
1.08831561676 -0.018727853199 0.0
1.09464211794 -0.000421482896859 0.0
1.09689188821 0.000479978289299 0.0
1.09686181666 -0.00292236042406 0.0
1.09262619174 -0.00240769494988 0.0
1.09629392842 0.00060571086537 0.0
1.09389701999 5.64523045931e-06 0.0
1.0906470747 0.000389124405382 0.0
1.09353367624 0.000709125974687 0.0
1.09049667484 0.000490249446442 0.0
1.09817146716 0.00062297351636 0.0
1.09226811378 0.000694585189237 0.0
1.09946838603 0.00323358755291 0.0
1.09039369852 -0.0110490445291 0.0
1.08738377929 0.0129264217788 0.0
1.0906275087 0.000110280918824 0.0
1.09273367087 2.44222414647e-05 0.0
1.09320644658 -0.00247978300847 0.0
1.08249884173 -0.00319240095642 0.0
1.08302576642 -0.0143788058952 0.0
1.09507272016 0.000890116583638 0.0
1.10496602102 -0.170968575305 0.0
1.09203851622 0.00101594903222 0.0
1.02396935236 -0.0505458635821 0.0
1.04987480781 0.0154112633886 0.0
1.04855220883 0.0126638920639 0.0
1.06735358495 0.017822675569 0.0
1.06674967645 0.0153605559077 0.0
1.11991451901 -0.0517694401873 0.0
1.07142321414 0.0189166217683 0.0
1.09614895681 0.0012287544326 0.0
1.09326236789 -0.00424916048559 0.0
1.09701767421 0.000707543765653 0.0
1.09323410375 0.000384868693827 0.0
1.05805665334 -0.0309254036204 0.0
1.09342450173 0.00108817242366 0.0
1.09114478305 0.000140020320273 0.0
1.09461409863 0.000804418191772 0.0
1.09407044177 0.000328336314432 0.0
1.09063348142 -0.000772657935703 0.0
1.07245243794 0.00936565850613 0.0
1.07438730997 0.00661554534797 0.0
1.07062438456 0.00273512577913 0.0
1.07080744756 0.014279709217 0.0
1.07146228244 0.000625604922669 0.0
1.05339333885 -0.00200647067841 0.0
1.04390356765 0.00642323084601 0.0
1.09818416111 -0.000893175954198 0.0
1.03856986142 -0.0173288092616 0.0
1.0749119937 0.0223084161682 0.0
1.06085371726 0.00198571077836 0.0
1.09259011235 0.00120115509997 0.0
1.09409562259 -0.00163965495071 0.0
1.09559511009 -0.00112795439403 0.0
1.09384314566 -0.000474418005856 0.0
1.09185976808 0.000599755647907 0.0
1.09160452942 -0.00100574077468 0.0
1.04302987897 -0.000918693207452 0.0
1.02508350772 -0.0776517198945 0.0
1.09142346359 0.00205480960087 0.0
0.994145758191 0.0125801894477 0.0
1.01294507416 -0.00977020802789 0.0
1.00569610544 0.0119184909083 0.0
1.01121052326 -0.0091637706014 0.0
1.00774123829 0.0145570724496 0.0
1.09102280177 0.000110430540763 0.0
1.09370480142 0.000429711592529 0.0
1.09164421047 0.00089705253415 0.0
1.09071105206 -0.000134717506843 0.0
1.09420926187 0.000436126773388 0.0
1.087975135 -0.00709170465657 0.0
1.09523827027 0.000903848028536 0.0
1.0898166217 -0.00517359783862 0.0
1.09688779207 0.00295172458364 0.0
1.09539357828 -0.000577039232204 0.0
1.09107797946 0.00081961242869 0.0
1.09926810473 0.00227949758023 0.0
1.09156621641 -0.000381013719584 0.0
1.09481054785 0.00232025060278 0.0
1.09910586387 -0.0344072847532 0.0
1.09695552759 -0.000622208502113 0.0
1.09639127426 0.00128279791135 0.0
1.08929960655 0.00121474806595 0.0
1.09527425711 0.00112832675199 0.0
1.09125215537 -0.00515154277956 0.0
1.08871783755 0.00197106194415 0.0
1.08989746164 -0.00127215753461 0.0
1.09260956942 0.00257653888404 0.0
1.09322555799 3.06624261485e-05 0.0
1.09748267829 -0.0010278315874 0.0
1.09902005251 0.00134765713473 0.0
1.09426983254 0.0014158137484 0.0
1.10355246518 -0.0153716769751 0.0
1.09561742898 -0.00634973473427 0.0
1.09585272339 -0.00430304733946 0.0
1.09838431461 -0.000135068550377 0.0
1.09271298322 -0.000836563972166 0.0
1.09040781613 0.00157904790162 0.0
1.09916806357 -0.00424249100265 0.0
0.919057605939 -0.0170697962674 0.0
0.930474836266 0.00304775251688 0.0
0.949176997227 0.0117088473342 0.0
0.97420578289 0.011319142942 0.0
0.974161534065 -0.0118170033487 0.0
0.936905277086 -0.0124140103523 0.0
0.965046082522 0.0112324710991 0.0
0.972001094756 0.0174043223464 0.0
0.978779538805 0.0158074794642 0.0
1.09810349766 -0.000153415057254 0.0
0.916691648467 -0.00835678946249 0.0
1.09362126668 -0.00072528800696 0.0
1.09342714934 -0.000108273565623 0.0
1.09448366784 -0.00123659205809 0.0
1.09276993513 0.000418652419773 0.0
1.09752257838 0.000432232411822 0.0
0.928594501341 -0.0237091468288 0.0
0.919944235194 -0.0006144638469 0.0
0.901652725425 -0.00253842134951 0.0
0.980037845821 -0.0921165672123 0.0
0.974977688743 0.00224208581296 0.0
1.09742152523 -0.160326414282 0.0
0.950560787346 -0.0040589187463 0.0
1.09569474525 -0.00142144523154 0.0
0.94130739933 -0.0161984701201 0.0
0.952282687294 0.013049227197 0.0
0.939433642721 -0.0159462838089 0.0
0.91570922491 -0.0134472533946 0.0
0.901257444782 -0.0046287047224 0.0
1.09420099006 0.000832662905709 0.0
1.07316870266 -0.0121224185763 0.0
1.09345759083 -0.00022461573738 0.0
1.09687376868 0.000328187488451 0.0
0.94507532762 -0.0206455620103 0.0
1.09228355763 0.000344019598346 0.0
1.00291756833 -0.0204353549418 0.0
1.0953734308 0.000381862261105 0.0
1.09196446245 -0.000982438702615 0.0
1.09414417088 0.000166488979405 0.0
1.09094415915 6.70581271747e-05 0.0
1.09321335934 0.000541839794539 0.0
1.09298986515 0.000616762976994 0.0
1.03177467191 -0.0299795864611 0.0
1.09527719829 0.00171927411541 0.0
1.09521121569 -0.00794184423283 0.0
0.932915617975 0.0183704389533 0.0
0.946347454207 -0.0132939421917 0.0
1.09152039478 0.000187091218928 0.0
1.09313910115 -0.000767389970067 0.0
1.09566527765 -0.000191817306922 0.0
0.896781514588 -0.0180176353736 0.0
1.09665921389 0.000567042244632 0.0
1.09326824137 -0.00129545696923 0.0
1.09745235301 0.00123510637963 0.0
1.09239092763 0.000999498068482 0.0
0.913040336455 -0.0257059376841 0.0
1.09392537286 0.00582388384355 0.0
0.896154305061 0.00240351796913 0.0
0.851880100054 -0.00593194449865 0.0
0.928037567195 -0.00758493103297 0.0
1.0922834766 0.000416044959598 0.0
1.09255930698 -0.00148664287565 0.0
1.08081666943 -0.00288961027953 0.0
1.09701708948 -0.00112817673056 0.0
1.09265345824 -0.00103229443178 0.0
1.0989839353 -0.000401493348099 0.0
1.09146131111 -0.000207358576089 0.0
0.910193245895 0.00574907717616 0.0
1.09719098218 -0.00742282043142 0.0
1.09397978038 0.000385501690374 0.0
1.0950850712 -0.00240286684236 0.0
1.09201454378 0.00177448241791 0.0
1.09649277586 0.00483835799523 0.0
1.08188441376 -0.00328552050014 0.0
1.09312363379 0.00825700316596 0.0
1.09675354394 0.00837450876555 0.0
1.09120625685 0.000313090195433 0.0
1.08820406658 -0.00358761101315 0.0
1.09558379551 0.00921142915809 0.0
1.10013312321 -0.000810460982399 0.0
1.09005356637 0.000125438384371 0.0
1.0937400642 0.000751444320833 0.0
1.09142743412 0.00180993702925 0.0
1.09201334512 0.00183025370034 0.0
1.07553436091 -0.113079886097 0.0
1.09380850468 0.000657297420296 0.0
1.0915281851 0.00020899169665 0.0
1.10067906065 0.00892797044983 0.0
1.10966166283 -0.000779535530288 0.0
1.08658038075 0.00192068000103 0.0
1.09104171733 -0.000149472546609 0.0
1.0927325191 0.000803987169037 0.0
1.10133014312 0.000275818190352 0.0
1.09265421163 0.00153270149994 0.0
1.05246391063 -0.0548736648886 0.0
1.09763920946 0.00733521885451 0.0
1.08530691009 0.00116151316576 0.0
1.09100543828 0.00111238401016 0.0
1.09051313723 -0.00085070243146 0.0
1.09807113132 0.00425828122179 0.0
1.08749795917 0.00573017202398 0.0
1.08861437562 -0.000562237042179 0.0
1.08626948946 -0.00496491382665 0.0
1.09137316412 -0.00241713974471 0.0
1.08907001416 0.00506833941603 0.0
1.01478367069 -0.0908559964227 0.0
1.09147183368 0.000805113244526 0.0
1.00554526163 -0.0321234948262 0.0
1.08883304184 0.000264312256335 0.0
1.09694345238 0.0012681888295 0.0
1.0955953896 -0.00206531010187 0.0
1.0851533004 -0.000581825647899 0.0
1.13423275271 -0.114233762185 0.0
1.09475137582 -0.00608850053338 0.0
1.11839034128 -0.0396577234107 0.0
1.09548650002 0.00645932868738 0.0
1.09657561137 0.000803184697732 0.0
1.09375322221 0.00128347783084 0.0
1.08019672327 -0.040586383482 0.0
1.09381063548 0.00198047002212 0.0
1.09673299608 -0.00132800652156 0.0
1.09498877444 -0.00105263483205 0.0
1.098867284 -0.00194435883033 0.0
1.08358535238 0.00469219495487 0.0
1.0904831939 -0.0134250707004 0.0
1.09245788738 -0.00331572526003 0.0
1.08728341106 -0.00171931024181 0.0
1.09379960589 -0.00347471731836 0.0
1.10067760876 -0.00399733454984 0.0
1.09806229782 -0.00194376771536 0.0
1.08655590777 -0.00278259544778 0.0
1.08837076337 0.00618519573525 0.0
1.09331920707 0.0019743749335 0.0
1.09132276153 0.000269383583405 0.0
1.09445126873 0.000517444885256 0.0
1.08970747024 -0.00196537180662 0.0
1.09481884823 0.00193578612449 0.0
0.85812760198 0.0103075751614 0.0
0.770466439188 0.0250831725626 0.0
0.78414948852 0.00918463196227 0.0
0.76556885269 0.0218152569824 0.0
0.797824561127 -0.017783508307 0.0
1.0910537392 0.000100690654009 0.0
0.767535704951 0.0165810058885 0.0
1.09394347314 0.000219197255182 0.0
1.09214762159 0.000598804020344 0.0
1.0910496568 -0.000280686120146 0.0
1.09465589758 0.0003390567753 0.0
1.09347881591 -0.000154090506475 0.0
1.0978144876 0.000221643906645 0.0
1.08974266091 -0.00314374101392 0.0
1.09535264576 0.000637321113852 0.0
0.761307637631 0.00333612975881 0.0
0.745640193225 0.00180867385306 0.0
0.80290536201 0.00632879720063 0.0
1.09353396871 0.000424758215508 0.0
0.814056692762 -0.00375303744144 0.0
0.712317466352 -0.0243594266745 0.0
0.723952682759 -0.00149271364251 0.0
0.723342151811 0.0243091933182 0.0
0.739685878166 0.00406210676711 0.0
1.09419345841 -0.000844586478627 0.0
0.747673672091 0.0344266677805 0.0
0.694373950378 0.0308098226582 0.0
0.801220800751 -0.00577298674944 0.0
0.788249082135 0.0104465481125 0.0
0.975745413473 -0.128781853702 0.0
1.09426394141 0.000184549065644 0.0
1.0909833278 3.00498222022e-05 0.0
1.0934682248 -0.000201098399866 0.0
0.834298067682 -0.00736612862628 0.0
0.814858492377 -0.0073641540357 0.0
0.71800110785 -0.0380156412788 0.0
0.698666589345 0.0290047965343 0.0
0.815845305404 -0.00739807207709 0.0
1.09492618584 -0.000682468301546 0.0
1.0998884939 0.000747765740443 0.0
1.10007927851 -0.00241825129488 0.0
1.09358162467 0.000590422973174 0.0
1.05497304872 -0.0143607205727 0.0
1.0837206738 0.000817053219755 0.0
1.09307576658 0.000193231598523 0.0
1.09729278153 0.000403558508559 0.0
1.03494608623 -0.0738084771618 0.0
1.09197130042 0.00156748876336 0.0
1.09758178043 -0.000472582288146 0.0
0.683087008012 0.0251736690756 0.0
1.0921761094 0.000784235500878 0.0
1.09192528909 0.000319801632962 0.0
1.09200407252 -0.000384346883013 0.0
1.09262363079 0.000512608149147 0.0
1.0225206053 -0.0301239157554 0.0
1.08310756677 -0.00500577783467 0.0
1.09462380349 0.000550225832397 0.0
0.574828181035 0.00271651421643 0.0
1.09325317924 0.00654771046648 0.0
1.10313469226 0.000652662195945 0.0
0.582379850159 -0.021760013954 0.0
0.686398925967 -0.0331242270294 0.0
1.0954744242 0.000931392623556 0.0
1.09120696661 -0.00195013948758 0.0
1.09102276577 0.000221464205373 0.0
1.09422588754 0.000139824585759 0.0
1.09273120051 0.000441200664308 0.0
1.09210052169 0.00454698784937 0.0
0.670628605846 0.00659362263408 0.0
1.08490412428 0.00214704508036 0.0
1.09009403033 0.00469594572004 0.0
1.09062486055 0.00896655689514 0.0
0.685075175651 -0.017464802219 0.0
1.09338519778 0.000975179743448 0.0
0.604216130249 0.0124782719803 0.0
0.618799540528 -0.000974220793163 0.0
0.606659097088 0.0134037395843 0.0
0.62226988071 0.02501328003 0.0
1.10054645485 -0.000777771745444 0.0
1.09542863815 -0.00227033320188 0.0
1.09738010558 -0.00178028375345 0.0
1.09102856494 8.02921997851e-05 0.0
1.09414246391 0.000137346567475 0.0
1.09294373128 0.000569472370244 0.0
1.09419021778 0.0012877912637 0.0
1.07817546287 -0.0221251677503 0.0
1.09355240798 -0.00141968897354 0.0
1.09393897111 -0.000104655070767 0.0
1.09677251548 0.000447615355147 0.0
1.09619363308 -0.000185582588328 0.0
1.09250029101 0.00473576454898 0.0
1.11777141176 -0.0721449607404 0.0
1.09513385655 0.000364243296711 0.0
1.09165308587 -0.000590926591163 0.0
1.09609123162 -0.00524340526693 0.0
1.09624075344 0.00213931205927 0.0
1.09338151621 -0.000755410219702 0.0
1.09258679424 0.000401661629348 0.0
1.09977423003 -5.56257464774e-05 0.0
0.656160876479 -0.00366031103535 0.0
0.675995489602 -0.00614000053522 0.0
1.09985582283 -0.00235389267644 0.0
0.588778440127 -0.00167549190628 0.0
1.08752405593 -0.00755273090543 0.0
1.09412960755 -0.00137475228105 0.0
0.771989071859 -0.0144095883838 0.0
1.09178563684 0.00131165653933 0.0
1.08600669942 -0.00127345136229 0.0
1.09009962457 -7.31960068979e-05 0.0
1.08968234437 0.00733867622221 0.0
1.09228365361 0.00369484218055 0.0
1.09615168202 0.000528005028249 0.0
1.09181646142 -0.00177292495817 0.0
0.622873380599 0.0122412395923 0.0
0.650958315041 0.0116332651545 0.0
0.570787084397 -0.0234765720628 0.0
1.09520374111 -0.000783813023618 0.0
1.09157433372 0.000353229563294 0.0
1.09361893586 -0.00429443687332 0.0
1.00398207803 -0.0298341215303 0.0
1.09041430692 0.00147036389302 0.0
1.0930514326 -4.45222037519e-05 0.0
1.09693037813 0.000249110195523 0.0
1.09110270368 0.000158555104808 0.0
1.09132818775 0.00102937169947 0.0
1.09387126447 -0.00221934111497 0.0
1.09912108474 0.00202399412424 0.0
1.09341708995 -0.00770183175237 0.0
1.09429268623 -0.000908654980863 0.0
1.08674217881 -0.000404443374715 0.0
0.530162076355 -0.00170298142264 0.0
0.566652892478 0.022911518365 0.0
0.63123580508 -0.02014544435 0.0
1.09498399897 0.00153128767433 0.0
1.09819120704 -0.02246747987 0.0
1.097261141 0.000415611433083 0.0
1.09602083879 -0.000322444348223 0.0
1.09145883011 2.79979777046e-05 0.0
1.09530769627 0.00130256021464 0.0
1.10894460027 -0.0253205598921 0.0
1.09852575392 0.000606359439711 0.0
1.09932650195 -0.00199674152095 0.0
1.09215955411 0.000593373345317 0.0
0.653103666017 -0.00977207306482 0.0
1.09948642377 -0.00670838673503 0.0
0.747443997376 -0.0132309230153 0.0
0.691045064365 0.0028189586309 0.0
1.0909357785 0.00104877392185 0.0
0.48502130238 0.00854086434538 0.0
0.513141619144 -0.0245001273477 0.0
1.09233633735 -0.000567791875678 0.0
1.09524767326 6.98805307037e-05 0.0
1.09766899426 -0.000233825278086 0.0
1.09086527991 0.00010393401847 0.0
0.561823360928 -8.22308567092e-05 0.0
1.09734126742 -0.00424466020863 0.0
1.09361099244 0.000559551272121 0.0
1.08908264104 -0.0011543873394 0.0
1.07134782152 0.0106143051204 0.0
1.06832204636 -0.00137833357453 0.0
1.07310259131 0.0126230739592 0.0
1.07418549707 0.00224989054372 0.0
1.08622645717 0.00320287010697 0.0
1.0876864261 -0.00335289342201 0.0
1.0741677685 -0.017754475238 0.0
1.08356376751 0.0119091630346 0.0
1.06639436695 -0.0100734594696 0.0
1.04828411589 -0.0166302442466 0.0
1.07071412603 0.00560801273447 0.0
1.01442881493 -0.0593546287232 0.0
1.08485213956 -0.0109048170711 0.0
1.09472548823 0.00104244411884 0.0
1.05356662614 -0.117078817164 0.0
1.09303299836 0.00254140184075 0.0
1.07434029043 0.0177969337207 0.0
1.00087144926 -0.00946985952715 0.0
1.09180522114 0.000260476108882 0.0
1.09324512457 -0.00426732638524 0.0
1.0975859095 0.00110508636419 0.0
1.09222581122 -0.00186639831848 0.0
1.09109309367 5.59833021024e-05 0.0
1.09401061386 -0.000662396511571 0.0
1.09074576621 0.000710981707853 0.0
1.09385089611 0.000461181745576 0.0
1.09315629116 -0.000330779312847 0.0
1.09407567702 0.000402974873432 0.0
1.08990569705 0.000290113286369 0.0