# vtk DataFile Version 2.0
2D Simulation Python
ASCII
DATASET UNSTRUCTURED_GRID
FIELD FieldData 1
NODES 1 2 int
2790 1289

POINTS 2790 double
0.0 1.0 0.0
1.725 1.0 0.0
8.275 1.0 0.0
20.0 1.0 0.0
20.0 0.0 0.0
0.0 0.0 0.0
0.1916666666663293 1.0 0.0
0.3833333333324708 1.0 0.0
0.574999999998553 1.0 0.0
0.7666666666645966 1.0 0.0
0.9583333333312576 1.0 0.0
1.149999999998384 1.0 0.0
1.341666666665662 1.0 0.0
1.533333333332819 1.0 0.0
0.0958333333331406 1.0 0.0
0.2874999999994247 1.0 0.0
0.4791666666655395 1.0 0.0
0.6708333333315728 1.0 0.0
0.8624999999976626 1.0 0.0
1.054166666664886 1.0 0.0
1.245833333332057 1.0 0.0
1.437499999999343 1.0 0.0
1.629166666666455 1.0 0.0
1.92348484848444 1.0 0.0
2.121969696968978 1.0 0.0
2.320454545453434 1.0 0.0
2.518939393937826 1.0 0.0
2.717424242422235 1.0 0.0
2.915909090906411 1.0 0.0
3.1143939393908 1.0 0.0
3.312878787875129 1.0 0.0
3.511363636359531 1.0 0.0
3.709848484843827 1.0 0.0
3.90833333332816 1.0 0.0
4.106818181812215 1.0 0.0
4.305303030296804 1.0 0.0
4.503787878781365 1.0 0.0
4.702272727265711 1.0 0.0
4.900757575750005 1.0 0.0
5.099242424235156 1.0 0.0
5.297727272720327 1.0 0.0
5.496212121205663 1.0 0.0
5.694696969690998 1.0 0.0
5.89318181817668 1.0 0.0
6.09166666666213 1.0 0.0
6.290151515147423 1.0 0.0
6.488636363633031 1.0 0.0
6.687121212118713 1.0 0.0
6.885606060604342 1.0 0.0
7.084090909089381 1.0 0.0
7.282575757574369 1.0 0.0
7.481060606059355 1.0 0.0
7.679545454544343 1.0 0.0
7.878030303029329 1.0 0.0
8.076515151514705 1.0 0.0
1.824242424242199 1.0 0.0
2.022727272726695 1.0 0.0
2.221212121211181 1.0 0.0
2.41969696969563 1.0 0.0
2.618181818180092 1.0 0.0
2.816666666664316 1.0 0.0
3.015151515148624 1.0 0.0
3.213636363633039 1.0 0.0
3.412121212117267 1.0 0.0
3.610606060601583 1.0 0.0
3.809090909085975 1.0 0.0
4.007575757570153 1.0 0.0
4.206060606054539 1.0 0.0
4.404545454539001 1.0 0.0
4.603030303023853 1.0 0.0
4.801515151507715 1.0 0.0
4.999999999992074 1.0 0.0
5.198484848477777 1.0 0.0
5.396969696963081 1.0 0.0
5.595454545448261 1.0 0.0
5.793939393933949 1.0 0.0
5.992424242419331 1.0 0.0
6.190909090904785 1.0 0.0
6.389393939390224 1.0 0.0
6.587878787875795 1.0 0.0
6.786363636361617 1.0 0.0
6.984848484846598 1.0 0.0
7.183333333331875 1.0 0.0
7.381818181816625 1.0 0.0
7.580303030301849 1.0 0.0
7.778787878786936 1.0 0.0
7.977272727272114 1.0 0.0
8.175757575757618 1.0 0.0
8.473728813558951 1.0 0.0
8.672457627118133 1.0 0.0
8.871186440676855 1.0 0.0
9.069915254236154 1.0 0.0
9.268644067794812 1.0 0.0
9.467372881354057 1.0 0.0
9.666101694912944 1.0 0.0
9.864830508471961 1.0 0.0
10.06355932203108 1.0 0.0
10.26228813558986 1.0 0.0
10.46101694914916 1.0 0.0
10.65974576270777 1.0 0.0
10.85847457626706 1.0 0.0
11.05720338982589 1.0 0.0
11.25593220338497 1.0 0.0
11.45466101694402 1.0 0.0
11.65338983050287 1.0 0.0
11.85211864406215 1.0 0.0
12.05084745762035 1.0 0.0
12.24957627117938 1.0 0.0
12.44830508473794 1.0 0.0
12.64703389829659 1.0 0.0
12.84576271185557 1.0 0.0
13.04449152541379 1.0 0.0
13.24322033897301 1.0 0.0
13.44194915253121 1.0 0.0
13.6406779660903 1.0 0.0
13.83940677964874 1.0 0.0
14.03813559320751 1.0 0.0
14.23686440676681 1.0 0.0
14.43559322032663 1.0 0.0
14.63432203388679 1.0 0.0
14.8330508474463 1.0 0.0
15.0317796610067 1.0 0.0
15.23050847456608 1.0 0.0
15.42923728812645 1.0 0.0
15.62796610168606 1.0 0.0
15.82669491524602 1.0 0.0
16.02542372880584 1.0 0.0
16.22415254236431 1.0 0.0
16.42288135592496 1.0 0.0
16.62161016948498 1.0 0.0
16.82033898304518 1.0 0.0
17.01906779660567 1.0 0.0
17.2177966101654 1.0 0.0
17.41652542372565 1.0 0.0
17.61525423728425 1.0 0.0
17.81398305084494 1.0 0.0
18.01271186440355 1.0 0.0
18.21144067796387 1.0 0.0
18.41016949152309 1.0 0.0
18.6088983050827 1.0 0.0
18.80762711864282 1.0 0.0
19.00635593220153 1.0 0.0
19.20508474576211 1.0 0.0
19.40381355932072 1.0 0.0
19.60254237288117 1.0 0.0
19.80127118644013 1.0 0.0
8.374364406779554 1.0 0.0
8.573093220338519 1.0 0.0
8.771822033897509 1.0 0.0
8.970550847456504 1.0 0.0
9.169279661015429 1.0 0.0
9.368008474574502 1.0 0.0
9.566737288133496 1.0 0.0
9.765466101692677 1.0 0.0
9.964194915251602 1.0 0.0
10.16292372881015 1.0 0.0
10.36165254236967 1.0 0.0
10.56038135592849 1.0 0.0
10.75911016948728 1.0 0.0
10.95783898304648 1.0 0.0
11.15656779660554 1.0 0.0
11.35529661016447 1.0 0.0
11.55402542372345 1.0 0.0
11.75275423728253 1.0 0.0
11.95148305084111 1.0 0.0
12.15021186439983 1.0 0.0
12.34894067795883 1.0 0.0
12.54766949151722 1.0 0.0
12.74639830507616 1.0 0.0
12.94512711863486 1.0 0.0
13.14385593219357 1.0 0.0
13.34258474575207 1.0 0.0
13.54131355931069 1.0 0.0
13.7400423728695 1.0 0.0
13.93877118642822 1.0 0.0
14.13749999998697 1.0 0.0
14.33622881354686 1.0 0.0
14.53495762710678 1.0 0.0
14.73368644066656 1.0 0.0
14.93241525422655 1.0 0.0
15.13114406778625 1.0 0.0
15.32987288134641 1.0 0.0
15.52860169490635 1.0 0.0
15.7273305084661 1.0 0.0
15.9260593220261 1.0 0.0
16.12478813558534 1.0 0.0
16.32351694914468 1.0 0.0
16.52224576270527 1.0 0.0
16.72097457626511 1.0 0.0
16.91970338982543 1.0 0.0
17.11843220338561 1.0 0.0
17.31716101694539 1.0 0.0
17.51588983050497 1.0 0.0
17.71461864406449 1.0 0.0
17.91334745762401 1.0 0.0
18.11207627118383 1.0 0.0
18.31080508474307 1.0 0.0
18.50953389830311 1.0 0.0
18.70826271186271 1.0 0.0
18.90699152542239 1.0 0.0
19.10572033898203 1.0 0.0
19.30444915254171 1.0 0.0
19.50317796610107 1.0 0.0
19.70190677966065 1.0 0.0
19.90063559322003 1.0 0.0
20.0 0.7999999999999998 0.0
20.0 0.6000000000013869 0.0
20.0 0.4000000000016644 0.0
20.0 0.2000000000008322 0.0
20.0 0.9000000000000369 0.0
20.0 0.7000000000005904 0.0
20.0 0.5000000000017577 0.0
20.0 0.3000000000012483 0.0
20.0 0.1000000000004161 0.0
19.8 0.0 0.0
19.6 0.0 0.0
19.4 0.0 0.0
19.2 0.0 0.0
19.0 0.0 0.0
18.8 0.0 0.0
18.6 0.0 0.0
18.4 0.0 0.0
18.2 0.0 0.0
18.0 0.0 0.0
17.8 0.0 0.0
17.59999999999999 0.0 0.0
17.4 0.0 0.0
17.2 0.0 0.0
16.99999999999999 0.0 0.0
16.79999999999999 0.0 0.0
16.59999999999999 0.0 0.0
16.4 0.0 0.0
16.2 0.0 0.0
15.99999999999999 0.0 0.0
15.79999999999999 0.0 0.0
15.59999999999999 0.0 0.0
15.4 0.0 0.0
15.2 0.0 0.0
15.0 0.0 0.0
14.79999999999999 0.0 0.0
14.59999999999999 0.0 0.0
14.4 0.0 0.0
14.2 0.0 0.0
13.99999999999999 0.0 0.0
13.8 0.0 0.0
13.59999999999999 0.0 0.0
13.4 0.0 0.0
13.2 0.0 0.0
13.0 0.0 0.0
12.79999999999999 0.0 0.0
12.6 0.0 0.0
12.4 0.0 0.0
12.2 0.0 0.0
11.99999999999999 0.0 0.0
11.8 0.0 0.0
11.6 0.0 0.0
11.4 0.0 0.0
11.2 0.0 0.0
11.0 0.0 0.0
10.8 0.0 0.0
10.6 0.0 0.0
10.4 0.0 0.0
10.2 0.0 0.0
9.999999999999998 0.0 0.0
9.799999999999995 0.0 0.0
9.599999999999998 0.0 0.0
9.399999999999997 0.0 0.0
9.199999999999998 0.0 0.0
8.999999999999996 0.0 0.0
8.799999999999997 0.0 0.0
8.599999999999996 0.0 0.0
8.399999999999999 0.0 0.0
8.199999999999996 0.0 0.0
7.999999999999998 0.0 0.0
7.799999999999997 0.0 0.0
7.599999999999998 0.0 0.0
7.399999999999999 0.0 0.0
7.199999999999998 0.0 0.0
6.999999999999995 0.0 0.0
6.799999999999995 0.0 0.0
6.599999999999998 0.0 0.0
6.399999999999997 0.0 0.0
6.199999999999996 0.0 0.0
5.999999999999998 0.0 0.0
5.799999999999999 0.0 0.0
5.599999999999996 0.0 0.0
5.399999999999995 0.0 0.0
5.199999999999996 0.0 0.0
4.999999999999998 0.0 0.0
4.799999999999997 0.0 0.0
4.599999999999998 0.0 0.0
4.399999999999999 0.0 0.0
4.199999999999999 0.0 0.0
3.999999999999996 0.0 0.0
3.799999999999997 0.0 0.0
3.599999999999998 0.0 0.0
3.399999999999999 0.0 0.0
3.199999999999999 0.0 0.0
3.0 0.0 0.0
2.800000000000001 0.0 0.0
2.599999999999998 0.0 0.0
2.399999999999999 0.0 0.0
2.199999999999996 0.0 0.0
1.999999999999996 0.0 0.0
1.800000000000001 0.0 0.0
1.599999999999998 0.0 0.0
1.399999999999999 0.0 0.0
1.200000000000003 0.0 0.0
1.0 0.0 0.0
0.7999999999999972 0.0 0.0
0.5999999999999979 0.0 0.0
0.3999999999999986 0.0 0.0
0.1999999999999993 0.0 0.0
19.90000000000022 0.0 0.0
19.69999999999997 0.0 0.0
19.49999999999987 0.0 0.0
19.30000000000005 0.0 0.0
19.09999999999999 0.0 0.0
18.89999999999987 0.0 0.0
18.7 0.0 0.0
18.49999999999999 0.0 0.0
18.30000000000001 0.0 0.0
18.09999999999987 0.0 0.0
17.90000000000013 0.0 0.0
17.7 0.0 0.0
17.49999999999987 0.0 0.0
17.30000000000025 0.0 0.0
17.10000000000001 0.0 0.0
16.90000000000005 0.0 0.0
16.70000000000003 0.0 0.0
16.50000000000006 0.0 0.0
16.29999999999997 0.0 0.0
16.09999999999999 0.0 0.0
15.89999999999987 0.0 0.0
15.69999999999999 0.0 0.0
15.49999999999999 0.0 0.0
15.3 0.0 0.0
15.10000000000003 0.0 0.0
14.90000000000005 0.0 0.0
14.69999999999992 0.0 0.0
14.49999999999996 0.0 0.0
14.29999999999999 0.0 0.0
14.10000000000008 0.0 0.0
13.89999999999988 0.0 0.0
13.70000000000003 0.0 0.0
13.50000000000004 0.0 0.0
13.29999999999992 0.0 0.0
13.09999999999995 0.0 0.0
12.90000000000016 0.0 0.0
12.7 0.0 0.0
12.49999999999986 0.0 0.0
12.30000000000003 0.0 0.0
12.10000000000016 0.0 0.0
11.90000000000005 0.0 0.0
11.69999999999994 0.0 0.0
11.49999999999993 0.0 0.0
11.30000000000005 0.0 0.0
11.0999999999999 0.0 0.0
10.90000000000004 0.0 0.0
10.69999999999995 0.0 0.0
10.50000000000012 0.0 0.0
10.29999999999999 0.0 0.0
10.09999999999993 0.0 0.0
9.900000000000077 0.0 0.0
9.699999999999969 0.0 0.0
9.499999999999982 0.0 0.0
9.299999999999969 0.0 0.0
9.100000000000108 0.0 0.0
8.899999999999972 0.0 0.0
8.699999999999958 0.0 0.0
8.499999999999998 0.0 0.0
8.30000000000003 0.0 0.0
8.099999999999977 0.0 0.0
7.899999999999974 0.0 0.0
7.700000000000166 0.0 0.0
7.499999999999854 0.0 0.0
7.299999999999997 0.0 0.0
7.100000000000019 0.0 0.0
6.900000000000002 0.0 0.0
6.699999999999974 0.0 0.0
6.500000000000037 0.0 0.0
6.299999999999981 0.0 0.0
6.100000000000014 0.0 0.0
5.899999999999949 0.0 0.0
5.700000000000049 0.0 0.0
5.499999999999956 0.0 0.0
5.300000000000118 0.0 0.0
5.100000000000005 0.0 0.0
4.900000000000109 0.0 0.0
4.699999999999982 0.0 0.0
4.499999999999936 0.0 0.0
4.300000000000137 0.0 0.0
4.100000000000012 0.0 0.0
3.899999999999888 0.0 0.0
3.69999999999974 0.0 0.0
3.500000000000046 0.0 0.0
3.299999999999965 0.0 0.0
3.099999999999817 0.0 0.0
2.900000000000066 0.0 0.0
2.699999999999793 0.0 0.0
2.500000000000064 0.0 0.0
2.299999999999823 0.0 0.0
[...]
POINT_DATA 2790
VECTORS vector double
1.0 0.0 0.0
0.0 0.0 0.0
0.0 0.0 0.0
0.0 0.0 0.0
1.53516268725 0.0 0.0
1.0 0.0 0.0
0.0 0.0 0.0
0.0 0.0 0.0
0.0 0.0 0.0
0.0 0.0 0.0
0.0 0.0 0.0
0.0 0.0 0.0
0.0 0.0 0.0
0.0 0.0 0.0
0.0 0.0 0.0
0.0 0.0 0.0
0.0 0.0 0.0
0.0 0.0 0.0
0.0 0.0 0.0
0.0 0.0 0.0
0.0 0.0 0.0
0.0 0.0 0.0
0.0 0.0 0.0
0.0 0.0 0.0
0.0 0.0 0.0
0.0 0.0 0.0
0.0 0.0 0.0
0.0 0.0 0.0
0.0 0.0 0.0
0.0 0.0 0.0
0.0 0.0 0.0
0.0 0.0 0.0
0.0 0.0 0.0
0.0 0.0 0.0
0.0 0.0 0.0
0.0 0.0 0.0
0.0 0.0 0.0
0.0 0.0 0.0
0.0 0.0 0.0
0.0 0.0 0.0
0.0 0.0 0.0
0.0 0.0 0.0
0.0 0.0 0.0
0.0 0.0 0.0
0.0 0.0 0.0
0.0 0.0 0.0
0.0 0.0 0.0
0.0 0.0 0.0
0.0 0.0 0.0
0.0 0.0 0.0
0.0 0.0 0.0
0.0 0.0 0.0
0.0 0.0 0.0
0.0 0.0 0.0
0.0 0.0 0.0
0.0 0.0 0.0
0.0 0.0 0.0
0.0 0.0 0.0
0.0 0.0 0.0
0.0 0.0 0.0
0.0 0.0 0.0
0.0 0.0 0.0
0.0 0.0 0.0
0.0 0.0 0.0
0.0 0.0 0.0
0.0 0.0 0.0
0.0 0.0 0.0
0.0 0.0 0.0
0.0 0.0 0.0
0.0 0.0 0.0
0.0 0.0 0.0
0.0 0.0 0.0
0.0 0.0 0.0
0.0 0.0 0.0
0.0 0.0 0.0
0.0 0.0 0.0
0.0 0.0 0.0
0.0 0.0 0.0
0.0 0.0 0.0
0.0 0.0 0.0
0.0 0.0 0.0
0.0 0.0 0.0
0.0 0.0 0.0
0.0 0.0 0.0
0.0 0.0 0.0
0.0 0.0 0.0
0.0 0.0 0.0
0.0 0.0 0.0
0.0 0.0 0.0
0.0 0.0 0.0
0.0 0.0 0.0
0.0 0.0 0.0
0.0 0.0 0.0
0.0 0.0 0.0
0.0 0.0 0.0
0.0 0.0 0.0
0.0 0.0 0.0
0.0 0.0 0.0
0.0 0.0 0.0
0.0 0.0 0.0
0.0 0.0 0.0
0.0 0.0 0.0
0.0 0.0 0.0
0.0 0.0 0.0
0.0 0.0 0.0
0.0 0.0 0.0
0.0 0.0 0.0
0.0 0.0 0.0
0.0 0.0 0.0
0.0 0.0 0.0
0.0 0.0 0.0
0.0 0.0 0.0
0.0 0.0 0.0
0.0 0.0 0.0
0.0 0.0 0.0
0.0 0.0 0.0
0.0 0.0 0.0
0.0 0.0 0.0
0.0 0.0 0.0
0.0 0.0 0.0
0.0 0.0 0.0
0.0 0.0 0.0
0.0 0.0 0.0
0.0 0.0 0.0
0.0 0.0 0.0
0.0 0.0 0.0
0.0 0.0 0.0
0.0 0.0 0.0
0.0 0.0 0.0
0.0 0.0 0.0
0.0 0.0 0.0
0.0 0.0 0.0
0.0 0.0 0.0
0.0 0.0 0.0
0.0 0.0 0.0
0.0 0.0 0.0
0.0 0.0 0.0
0.0 0.0 0.0
0.0 0.0 0.0
0.0 0.0 0.0
0.0 0.0 0.0
0.0 0.0 0.0
0.0 0.0 0.0
0.0 0.0 0.0
0.0 0.0 0.0
0.0 0.0 0.0
0.0 0.0 0.0
0.0 0.0 0.0
0.0 0.0 0.0
0.0 0.0 0.0
0.0 0.0 0.0
0.0 0.0 0.0
0.0 0.0 0.0
0.0 0.0 0.0
0.0 0.0 0.0
0.0 0.0 0.0
0.0 0.0 0.0
0.0 0.0 0.0
0.0 0.0 0.0
0.0 0.0 0.0
0.0 0.0 0.0
0.0 0.0 0.0
0.0 0.0 0.0
0.0 0.0 0.0
0.0 0.0 0.0
0.0 0.0 0.0
0.0 0.0 0.0
0.0 0.0 0.0
0.0 0.0 0.0
0.0 0.0 0.0
0.0 0.0 0.0
0.0 0.0 0.0
0.0 0.0 0.0
0.0 0.0 0.0
0.0 0.0 0.0
0.0 0.0 0.0
0.0 0.0 0.0
0.0 0.0 0.0
0.0 0.0 0.0
0.0 0.0 0.0
0.0 0.0 0.0
0.0 0.0 0.0
0.0 0.0 0.0
0.0 0.0 0.0
0.0 0.0 0.0
0.0 0.0 0.0
0.0 0.0 0.0
0.0 0.0 0.0
0.0 0.0 0.0
0.0 0.0 0.0
0.0 0.0 0.0
0.0 0.0 0.0
0.0 0.0 0.0
0.0 0.0 0.0
0.0 0.0 0.0
0.0 0.0 0.0
0.0 0.0 0.0
0.0 0.0 0.0
0.0 0.0 0.0
0.0 0.0 0.0
0.0 0.0 0.0
0.0 0.0 0.0
0.0 0.0 0.0
0.0 0.0 0.0
0.0 0.0 0.0
0.561425521275 1.7291093079e-05 0.0
0.978388943049 0.000158294444463 0.0
1.25642854944 -1.85257668778e-05 0.0
1.4249348387 -0.000268755153629 0.0
0.286850884939 0.000338385671141 0.0
0.775082491676 0.00149066802939 0.0
1.12235986914 0.000317371234085 0.0
1.34314396932 -0.000544758294284 0.0
1.47886704146 -0.000228679858499 0.0
1.53464837662 0.0 0.0
1.53503569317 0.0 0.0
1.53541862502 0.0 0.0
1.53582644801 0.0 0.0
1.53533746669 0.0 0.0
1.5364620061 0.0 0.0
1.53663045132 0.0 0.0
1.53609352919 0.0 0.0
1.53669561248 0.0 0.0
1.53673439556 0.0 0.0
1.53615443504 0.0 0.0
1.53677886525 0.0 0.0
1.53676657675 0.0 0.0
1.53609985463 0.0 0.0
1.53509280798 0.0 0.0
1.53511095837 0.0 0.0
1.53599022729 0.0 0.0
1.53496346744 0.0 0.0
1.53470848026 0.0 0.0
1.53515817579 0.0 0.0
1.53341110554 0.0 0.0
1.53212320689 0.0 0.0
1.53141287924 0.0 0.0
1.52851037434 0.0 0.0
1.52614323947 0.0 0.0
1.52469487076 0.0 0.0
1.52135043606 0.0 0.0
1.51884644709 0.0 0.0
1.51743639071 0.0 0.0
1.5141263245 0.0 0.0
1.51164862697 0.0 0.0
1.5101902036 0.0 0.0
1.50670974974 0.0 0.0
1.50400126477 0.0 0.0
1.50229606343 0.0 0.0
1.49850289073 0.0 0.0
1.49547916338 0.0 0.0
1.49349019942 0.0 0.0
1.48907526945 0.0 0.0
1.48542265059 0.0 0.0
1.48314291815 0.0 0.0
1.47867333988 0.0 0.0
1.47468523841 0.0 0.0
1.47202463799 0.0 0.0
1.46713319158 0.0 0.0
1.46273182361 0.0 0.0
1.45971722923 0.0 0.0
1.45438333054 0.0 0.0
1.44956190126 0.0 0.0
1.44617631181 0.0 0.0
1.44056004459 0.0 0.0
1.43532010725 0.0 0.0
1.43131078576 0.0 0.0
1.4282694027 0.0 0.0
1.42178557098 0.0 0.0
1.41521488373 0.0 0.0
1.40965299059 0.0 0.0
1.40485998498 0.0 0.0
1.3985960935 0.0 0.0
1.3928744292 0.0 0.0
1.38850887424 0.0 0.0
1.38196854586 0.0 0.0
1.37587794107 0.0 0.0
1.37119138515 0.0 0.0
1.36428533059 0.0 0.0
1.35793314359 0.0 0.0
1.35297858781 0.0 0.0
1.34582648774 0.0 0.0
1.33904897772 0.0 0.0
1.33347551885 0.0 0.0
1.32835214052 0.0 0.0
1.31999017891 0.0 0.0
1.31321062249 0.0 0.0
1.30551465935 0.0 0.0
1.29699438448 0.0 0.0
1.28990580969 0.0 0.0
1.28079040153 0.0 0.0
1.27198844475 0.0 0.0
1.26392113129 0.0 0.0
1.25598679314 0.0 0.0
1.24682434484 0.0 0.0
1.23799906021 0.0 0.0
1.2292302367 0.0 0.0
1.21957769693 0.0 0.0
1.20994178726 0.0 0.0
1.20009441316 0.0 0.0
1.18973981322 0.0 0.0
1.17904702659 0.0 0.0
1.16790254182 0.0 0.0
1.15630888523 0.0 0.0
1.14382193236 0.0 0.0
1.13046360708 0.0 0.0
1.11638357223 0.0 0.0
1.10040245561 0.0 0.0
1.082547615 0.0 0.0
1.06309229792 0.0 0.0
1.04111552891 0.0 0.0
1.02023683181 0.0 0.0
1.00350738756 0.0 0.0
1.53434972011 0.0 0.0
1.53398505915 0.0 0.0
1.53555476402 0.0 0.0
1.53438092254 0.0 0.0
1.53456267661 0.0 0.0
1.53520752807 0.0 0.0
1.53689368545 0.0 0.0
1.53549970359 0.0 0.0
1.53545981117 0.0 0.0
1.53701087937 0.0 0.0
1.53555337734 0.0 0.0
1.53550638218 0.0 0.0
1.53707288 0.0 0.0
1.53556830483 0.0 0.0
1.53550776404 0.0 0.0
1.53438821991 0.0 0.0
1.5355330535 0.0 0.0
1.53544029076 0.0 0.0
1.53409351956 0.0 0.0
1.5349111752 0.0 0.0
1.53418406951 0.0 0.0
1.53198551794 0.0 0.0
1.53171543388 0.0 0.0
1.52974844857 0.0 0.0
1.52642153933 0.0 0.0
1.52530423816 0.0 0.0
1.5227676009 0.0 0.0
1.51913879067 0.0 0.0
1.51801316181 0.0 0.0
1.51554602812 0.0 0.0
1.51193357293 0.0 0.0
1.51080346632 0.0 0.0
1.50821109267 0.0 0.0
1.50438363137 0.0 0.0
1.50303315379 0.0 0.0
1.50015703013 0.0 0.0
1.49603425971 0.0 0.0
1.49433922184 0.0 0.0
1.49103452415 0.0 0.0
1.48632384204 0.0 0.0
1.48387793718 0.0 0.0
1.48080410078 0.0 0.0
1.47574060215 0.0 0.0
1.47293333382 0.0 0.0
1.46946356306 0.0 0.0
1.46395219074 0.0 0.0
1.46076718661 0.0 0.0
1.45690011341 0.0 0.0
1.45097479039 0.0 0.0
1.44734610496 0.0 0.0
1.44322329021 0.0 0.0
1.43698685051 0.0 0.0
1.4328160995 0.0 0.0
1.42840845767 0.0 0.0
1.42403171062 0.0 0.0
1.41806689033 0.0 0.0
1.41137203648 0.0 0.0
1.40680073454 0.0 0.0
1.401583558 0.0 0.0
1.39484829183 0.0 0.0
1.39020747736 0.0 0.0
1.38514968537 0.0 0.0
1.37793941314 0.0 0.0
1.37306335203 0.0 0.0
1.36763342635 0.0 0.0
1.36014383871 0.0 0.0
1.35499613807 0.0 0.0
1.3492894057 0.0 0.0
1.3416014102 0.0 0.0
1.33593187465 0.0 0.0
1.32973022367 0.0 0.0
1.32324375653 0.0 0.0
1.31595762818 0.0 0.0
1.30871654964 0.0 0.0
1.30068471292 0.0 0.0
1.29284073636 0.0 0.0
1.28413137803 0.0 0.0
1.27601715308 0.0 0.0
1.26748981205 0.0 0.0
1.25983934588 0.0 0.0
1.25098741606 0.0 0.0
1.24201526159 0.0 0.0
1.23348790089 0.0 0.0
1.2240964761 0.0 0.0
1.21454130173 0.0 0.0
1.20488422287 0.0 0.0
1.19475758496 0.0 0.0
1.18437529883 0.0 0.0
1.17336617265 0.0 0.0
1.16212155239 0.0 0.0
1.15022306073 0.0 0.0
1.13709041353 0.0 0.0
1.1236270168 0.0 0.0
1.10873858445 0.0 0.0
1.09148332329 0.0 0.0
1.07301090746 0.0 0.0
1.05244350035 0.0 0.0
1.03056774231 0.0 0.0
1.01124383422 0.0 0.0
0.998597677927 0.0 0.0
1.0 0.0 0.0
1.0 0.0 0.0
1.0 0.0 0.0
1.0 0.0 0.0
1.0 0.0 0.0
1.0 0.0 0.0
1.0 0.0 0.0
1.0 0.0 0.0
1.0 0.0 0.0
1.16747231552 -0.0716449142322 0.0
1.22433757005 -0.0465264360511 0.0
1.22791234657 -0.0312824704331 0.0
1.09953167628 8.33558991287e-05 0.0
1.13496747992 3.42561367882e-06 0.0
1.13393154198 -2.63654902654e-05 0.0
1.1309495225 6.63217855447e-05 0.0
1.12877001919 8.38753036084e-05 0.0
1.1286245354 -9.6798107887e-06 0.0
1.12861625874 -0.000380498905808 0.0
1.1295201144 -0.00101498236627 0.0
1.13116763539 -0.00145973259981 0.0
1.13297056332 -0.00163301778083 0.0
1.13484451186 -0.00175948541108 0.0
1.1369515961 -0.00191206936062 0.0
1.09190546214 -0.00191410817908 0.0
1.095006383 -0.00212185257383 0.0
1.09862946183 -0.00246231161082 0.0
1.10270988829 -0.00285378412813 0.0
1.15846239823 -0.00449128365284 0.0
1.22041846809 -0.0229245012983 0.0
1.12923979559 -0.00450429971033 0.0
1.1073256914 -0.00319021452072 0.0
1.20698238884 -0.0175895141209 0.0
1.1365835633 -0.00506893303331 0.0
1.14916284867 -0.00394859023488 0.0
1.19350284487 -0.0139696453371 0.0
1.14494012326 -0.00554397537572 0.0
1.18095734553 -0.0114302862019 0.0
1.18273207276 -0.00682335043585 0.0
1.19375127617 -0.0106714744163 0.0
1.15563334217 -0.00443539189859 0.0
1.17066046115 -0.00987715537678 0.0
0.899430273341 -0.000701811572844 0.0
1.20817087406 -0.142669635779 0.0
1.29327733279 -0.0107958896049 0.0
1.28136889795 -0.0126543445648 0.0
1.31166598882 -0.0073322435042 0.0
1.26700766877 -0.0148714235125 0.0
1.3125231506 -0.00652771592883 0.0
1.21777637742 -0.021179631763 0.0
1.24673111241 -0.0176356932455 0.0
1.31482552851 -0.00599934865899 0.0
1.31644065868 -0.00542133947522 0.0
1.31944252711 -0.00464487107439 0.0
1.32015482324 -0.00410376571881 0.0
1.32044989727 -0.00370367045982 0.0
1.32058957987 -0.00323884531712 0.0
1.3205570173 -0.00284635149372 0.0
1.31161091398 -0.00259342210694 0.0
1.31148874095 -0.00227883853019 0.0
1.31155512325 -0.00207925784846 0.0
1.20656984638 -0.0513662049854 0.0
1.31153755537 -0.00196539392015 0.0
1.31122023137 -0.00175077378054 0.0
1.31048321082 -0.00108309591611 0.0
1.17685603548 -0.0258171276461 0.0
1.30998189358 -0.000313701692337 0.0
1.13704022055 -0.0284228849721 0.0
1.12908631845 -0.0336299939669 0.0
1.30828119743 4.11706273143e-05 0.0
1.30843132794 -4.78437333689e-05 0.0
0.856316949899 -5.52530760286e-05 0.0
1.30836214793 5.59150444703e-05 0.0
0.855928123674 -0.000289202613725 0.0
0.972127378292 -0.00717363542147 0.0
0.991925352427 -0.00853506545808 0.0
0.931524218546 -0.00322299663313 0.0
1.08531489641 -0.0193342762182 0.0
1.01580171829 -0.0108639291475 0.0
0.919311296627 -0.00349725237715 0.0
1.04597350452 -0.0143178189562 0.0
0.909089603272 -0.00321291524697 0.0
0.899779325071 -0.00266133006697 0.0
0.892098727802 -0.00214616945488 0.0
0.88595490502 -0.00221310339279 0.0
0.88046399129 -0.00192581429717 0.0
0.87563294982 -0.00164492547338 0.0
0.87142898883 -0.0014382097989 0.0
0.8678236055 -0.00121301467027 0.0
0.864508696578 -0.0011362020235 0.0
0.861572740251 -0.00104381631258 0.0
0.858853776563 -0.000961304180302 0.0
0.856526864082 -0.000771945685598 0.0
0.854999847911 -0.000425362184712 0.0
1.31240155945 -4.51227907349e-05 0.0
0.854439221057 -0.000117200316187 0.0
0.85441272621 9.66823463706e-06 0.0
0.854587851609 5.31615988061e-05 0.0
0.854728677796 4.87890477701e-05 0.0
1.32806682867 0.000157280347987 0.0
1.0361680344 -0.0364459472554 0.0
1.33266848287 0.000510832228552 0.0
1.31921090861 -0.00504484363192 0.0
1.31313570869 -0.00837127604558 0.0
1.30448773332 -0.00973815530039 0.0
1.33030647223 -0.00534363625703 0.0
0.836896367422 -0.00341121298236 0.0
0.87674905453 -0.0022847235535 0.0
0.8931343759 -0.00344677282556 0.0
0.90263909191 -0.00783548230629 0.0
1.17461846032 -0.0756974974516 0.0
1.03454315472 -0.027661332114 0.0
1.33463534374 -0.000105026517439 0.0
1.38255516021 -0.0024717114479 0.0
1.38007199678 -0.00284544018472 0.0
1.13834664116 -0.0211525413467 0.0
1.37217399424 -0.00239222367905 0.0
1.07530198537 -0.0284986390082 0.0
1.37704640764 -0.00321889762772 0.0
1.3737067024 -0.00214871427085 0.0
1.37511917803 -0.00198239941466 0.0
1.36890661559 -0.00369011766182 0.0
0.946809060841 -0.015629189899 0.0
1.37639406937 -0.00190002713198 0.0
1.3653269434 -0.00411161415372 0.0
1.37707339308 -0.00155657296209 0.0
1.37712288046 -0.000741862851615 0.0
1.18449853652 -0.0170203197561 0.0
1.37712865268 -0.000114945575285 0.0
1.36806442449 3.62655692802e-05 0.0
1.41070409611 1.64404804834e-05 0.0
0.632352623071 0.000162782658868 0.0
1.35470820446 -0.00475102580611 0.0
1.40768307028 -4.56730186445e-05 0.0
0.647843864387 0.000182456665471 0.0
0.606241876388 0.000461975715256 0.0
1.4077257899 5.9019595749e-06 0.0
0.629909205607 0.000335616972542 0.0
1.35032167076 -0.00511795066399 0.0
1.22079510547 -0.0144632296864 0.0
0.629367385871 0.000341157515445 0.0
0.628975737931 0.000327897163411 0.0
0.62883350754 0.000211446457736 0.0
0.629373572347 2.72879744163e-05 0.0
1.34366509432 -0.00554688566853 0.0
1.25041222287 -0.0125701649886 0.0
0.630784623707 -8.81135589047e-05 0.0
0.632791707452 -0.00012469630939 0.0
0.63509281666 -0.000163170249505 0.0
0.637515693635 -0.000193930329472 0.0
0.640907324356 -0.000387702977653 0.0
1.33526713617 -0.00608975021711 0.0
1.2738893747 -0.0109544570443 0.0
0.644076020078 -0.000445530948304 0.0
0.647789018305 -0.000537042433353 0.0
0.516492132981 -0.000453160366525 0.0
0.652146878882 -0.00069093632514 0.0
0.836773664142 -0.00820020316772 0.0
0.675621106105 -0.000934210657406 0.0
0.798518619294 -0.00583646428214 0.0
0.68377876566 -0.00115012121589 0.0
0.656872146328 -0.000733933048248 0.0
0.770063345238 -0.00439212528842 0.0
0.692353146027 -0.00098516151184 0.0
0.747866956319 -0.0033974844872 0.0
0.53978349653 0.000239555110641 0.0
0.625552334426 -0.00236987937578 0.0
0.559539624421 -0.000282512870316 0.0
1.32407737509 -0.00616301184579 0.0
1.29293072902 -0.0096756534686 0.0
1.30603872463 -0.00889307154909 0.0
1.33001175755 -0.00689505570871 0.0
1.35869503407 -0.0045986612587 0.0
1.3667436626 -0.00437455690028 0.0
0.644619604297 -0.00279634947657 0.0
0.856966826902 -0.00768789821894 0.0
1.40939428691 2.70307277006e-05 0.0
1.04289763179 -0.0598148163071 0.0
1.13050565244 8.53841644045e-05 0.0
1.19467746899 -0.000141509021061 0.0
1.04277330663 -0.0185237646087 0.0
0.527346962004 0.000137264905018 0.0
1.10687246773 -0.0708401685633 0.0
1.01947383439 -0.0551098318564 0.0
0.576796541161 -0.00139212900892 0.0
1.4241393959 -0.00216230563602 0.0
1.4205911452 -0.00249488544885 0.0
1.42648606131 -0.00179238095637 0.0
1.41564279363 -0.00280138835096 0.0
1.27666683831 -0.296510605514 0.0
1.40944576071 -0.00317851537761 0.0
1.42985627953 -0.00159428158686 0.0
1.40300887775 -0.00343187862595 0.0
1.43297676538 -0.00148815198608 0.0
1.43588172023 -0.00146606609698 0.0
1.19628224559 -0.0100572579712 0.0
1.37305684403 -0.00426576932695 0.0
1.10867569135 -0.0154003922167 0.0
1.36297288698 -0.00458259896378 0.0
1.23008522108 -0.00890824729977 0.0
1.43802933846 -0.00111792278178 0.0
1.35172384212 -0.00490495212816 0.0
1.25881320247 -0.00790364273848 0.0
1.15659670119 -0.011816336404 0.0
1.28325192527 -0.00704710371813 0.0
1.43896878769 -0.000379597550777 0.0
1.43803916668 6.81896769559e-05 0.0
1.43706471553 0.00010001429586 0.0
1.43426229384 0.000431132463463 0.0
1.43566170145 0.000330502317146 0.0
1.43683831976 0.000289272038938 0.0
1.16005722189 -0.00436670773236 0.0
0.74909497409 -0.00964161433197 0.0
0.802538607323 -0.0156529789101 0.0
0.860413693441 -0.0222784598259 0.0
0.718822125248 -0.00856920327397 0.0
0.49589333521 -0.000322194173044 0.0
0.495666524762 -0.00027887720652 0.0
0.495519069836 -0.000287908775203 0.0
1.20589911339 -0.00840263752799 0.0
0.495515599491 -0.000366205818114 0.0
0.495996785877 -0.000495834694974 0.0
0.497236521218 -0.000600392859079 0.0
1.13410470394 0.000239835333157 0.0
1.21034563831 -0.0108228449819 0.0
0.499051854853 -0.000639702915203 0.0
1.13437825122 0.000272657510455 0.0
0.501144506599 -0.000660735902424 0.0
0.503428087059 -0.000717986642857 0.0
0.505748644628 -0.00034397520787 0.0
0.508507018257 -0.000412568451368 0.0
1.12172435822 0.000175551121062 0.0
0.511718612817 -0.000468342486155 0.0
1.12151925328 0.000612506725233 0.0
0.504025896937 -0.000125697534434 0.0
0.515459514293 -0.000564389599862 0.0
1.12117938732 0.000507257359274 0.0
0.506084676443 -0.000362274416382 0.0
1.12147464616 0.000251473619175 0.0
0.502748031273 -0.000714816078401 0.0
0.519757553711 -0.000730929645571 0.0
1.12208102315 -0.000331678222543 0.0
0.50331441795 -0.000559345057772 0.0
0.510150433517 -0.000361397179645 0.0
1.12355197544 -0.000873313057265 0.0
0.689777082943 -0.00774459549437 0.0
1.12532275367 -0.00110479277328 0.0
1.1271605766 -0.00121229045873 0.0
0.537757882803 -0.00061541199101 0.0
1.1290882734 -0.00135965780603 0.0
1.12867511196 -0.00169694327498 0.0
1.22896525466 -0.0261980184266 0.0
0.653800589995 -0.00520501093914 0.0
0.54464021492 -0.00108001652587 0.0
1.12926825059 -0.00178286526342 0.0
1.13247401995 -0.00210868913766 0.0
0.627768897847 -0.004051723677 0.0
0.552086682463 -0.00116252455207 0.0
1.13612191269 -0.00250232375614 0.0
0.607924918642 -0.00325045049581 0.0
0.535284510421 -0.000660967255727 0.0
1.14019224041 -0.00285268432443 0.0
1.14242559577 -0.00320196614924 0.0
0.578283004534 -0.00231844619473 0.0
1.15361835227 -0.00480671951231 0.0
1.16011758916 -0.00418179083947 0.0
1.16654107169 -0.00466485113632 0.0
1.22381214374 -0.0204014993863 0.0
1.17358880661 -0.00511593437697 0.0
1.21580713057 -0.0163699486142 0.0
1.17823693322 -0.00574805082922 0.0
1.20720650066 -0.0134957773689 0.0
1.19588846383 -0.0114069410076 0.0
1.22243613377 -0.0377135514108 0.0
1.20109784745 -0.0487593611133 0.0
1.18558596549 -0.0552624209799 0.0
1.19377405949 -0.00989142034115 0.0
1.22559105571 -0.0343210731637 0.0
1.22702925138 -0.0268159128677 0.0
1.20290787682 -0.0121001338191 0.0
1.16991696297 -0.00709121625412 0.0
1.21278632124 -0.0152396628783 0.0
1.16170453665 -0.00648327928415 0.0
1.22187356792 -0.0196645785015 0.0
1.15502012996 -0.00591914427373 0.0
0.603186028606 -0.00214809160592 0.0
1.15509808596 -0.00498891951575 0.0
0.622892138724 -0.00300684073822 0.0
0.561504227536 -0.00139521399789 0.0
0.692861571807 -0.00714822750667 0.0
1.13618675205 -0.00445093576465 0.0
0.644959934115 -0.00387601382993 0.0
0.558445307731 -0.00166279715844 0.0
1.13222305118 -0.00410092167294 0.0
1.12834910908 -0.00367027001028 0.0
0.674278811516 -0.00513329811534 0.0
0.551249370125 -0.00153348603226 0.0
1.12491140412 -0.00325133766968 0.0
1.43325781246 -0.000252268289958 0.0
1.12189198703 -0.00291873086037 0.0
1.13233837193 -0.00241487226993 0.0
0.521907544131 -0.000198441091562 0.0
1.13074812839 -0.00221077426832 0.0
1.12897958565 -0.00206397432592 0.0
1.12728259361 -0.00193813505139 0.0
1.12564194872 -0.00162151416978 0.0
1.12448821599 -0.00102408201872 0.0
1.12426154473 -0.000534822299343 0.0
1.1240590607 -0.000448728567935 0.0
1.12660823229 -0.000194381198338 0.0
1.12480034891 -1.77995063217e-05 0.0
1.12556490211 -0.00026618621132 0.0
1.12283277239 -0.000415173289844 0.0
1.38224128282 -0.00397871149955 0.0
1.43623448671 -0.00023733952032 0.0
0.531092129123 -0.00130002113499 0.0
0.521939596587 -0.00128334727021 0.0
0.517780011817 -0.00114144594628 0.0
0.514231097913 -0.00102736078629 0.0
0.511161474656 -0.000951015744082 0.0
1.43681931346 -5.10364541705e-05 0.0
0.508645630746 -0.000556725878162 0.0
0.506305616967 -0.000612942028257 0.0
0.504078859794 -0.000557563125465 0.0
0.5020607653 -0.00053404446358 0.0
0.500408504673 -0.000474681147301 0.0
0.499434841857 -0.000353180673508 0.0
1.43801810415 -0.000347946306896 0.0
0.499178779588 -0.000253264903449 0.0
0.499288525867 -0.000213713659421 0.0
0.499509084172 -0.000211108149748 0.0
0.503027204398 0.000130313772777 0.0
1.43742498835 -0.00103687465912 0.0
1.43571876211 -0.0016046476367 0.0
1.31146979508 -0.00710607000519 0.0
1.43299181124 -0.00169667868034 0.0
1.33267308396 -0.00510133804993 0.0
0.90119272195 -8.01168426839e-05 0.0
1.42990038554 -0.001751438812 0.0
1.00676554353 -0.0137267303582 0.0
1.08505843753 -0.0181084921386 0.0
1.43323750846 -0.000251905783272 0.0
1.42662360272 -0.0019164704991 0.0
1.21778105669 -0.0929484592765 0.0
1.4232662492 -0.00209059068239 0.0
1.43395943712 -0.00176109347761 0.0
1.38857056182 -0.00344539267366 0.0
1.42826921976 -0.00200059686288 0.0
1.42168014418 -0.00226276997901 0.0
1.43144520063 0.000164893870914 0.0
1.41372288095 -0.00250915700059 0.0
1.40557769788 -0.00269351550313 0.0
1.13526926651 -0.0107687129114 0.0
1.17706573753 -0.00899984472862 0.0
1.38005253565 -0.00317283682233 0.0
1.34438868621 -0.00386271426118 0.0
1.29231888447 -0.00572654460507 0.0
1.36940742209 -0.0034529092012 0.0
1.21256338407 -0.00787952792826 0.0
1.29608650471 -0.0013079101359 0.0