# vtk DataFile Version 2.0
2D Simulation Python
ASCII
DATASET UNSTRUCTURED_GRID
FIELD FieldData 1
NODES 1 2 int
2790 1289

POINTS 2790 double
0.0 1.0 0.0
1.725 1.0 0.0
8.275 1.0 0.0
20.0 1.0 0.0
20.0 0.0 0.0
0.0 0.0 0.0
0.1916666666663293 1.0 0.0
0.3833333333324708 1.0 0.0
0.574999999998553 1.0 0.0
0.7666666666645966 1.0 0.0
0.9583333333312576 1.0 0.0
1.149999999998384 1.0 0.0
1.341666666665662 1.0 0.0
1.533333333332819 1.0 0.0
0.0958333333331406 1.0 0.0
0.2874999999994247 1.0 0.0
0.4791666666655395 1.0 0.0
0.6708333333315728 1.0 0.0
0.8624999999976626 1.0 0.0
1.054166666664886 1.0 0.0
1.245833333332057 1.0 0.0
1.437499999999343 1.0 0.0
1.629166666666455 1.0 0.0
1.92348484848444 1.0 0.0
2.121969696968978 1.0 0.0
2.320454545453434 1.0 0.0
2.518939393937826 1.0 0.0
2.717424242422235 1.0 0.0
2.915909090906411 1.0 0.0
3.1143939393908 1.0 0.0
3.312878787875129 1.0 0.0
3.511363636359531 1.0 0.0
3.709848484843827 1.0 0.0
3.90833333332816 1.0 0.0
4.106818181812215 1.0 0.0
4.305303030296804 1.0 0.0
4.503787878781365 1.0 0.0
4.702272727265711 1.0 0.0
4.900757575750005 1.0 0.0
5.099242424235156 1.0 0.0
5.297727272720327 1.0 0.0
5.496212121205663 1.0 0.0
5.694696969690998 1.0 0.0
5.89318181817668 1.0 0.0
6.09166666666213 1.0 0.0
6.290151515147423 1.0 0.0
6.488636363633031 1.0 0.0
6.687121212118713 1.0 0.0
6.885606060604342 1.0 0.0
7.084090909089381 1.0 0.0
7.282575757574369 1.0 0.0
7.481060606059355 1.0 0.0
7.679545454544343 1.0 0.0
7.878030303029329 1.0 0.0
8.076515151514705 1.0 0.0
1.824242424242199 1.0 0.0
2.022727272726695 1.0 0.0
2.221212121211181 1.0 0.0
2.41969696969563 1.0 0.0
2.618181818180092 1.0 0.0
2.816666666664316 1.0 0.0
3.015151515148624 1.0 0.0
3.213636363633039 1.0 0.0
3.412121212117267 1.0 0.0
3.610606060601583 1.0 0.0
3.809090909085975 1.0 0.0
4.007575757570153 1.0 0.0
4.206060606054539 1.0 0.0
4.404545454539001 1.0 0.0
4.603030303023853 1.0 0.0
4.801515151507715 1.0 0.0
4.999999999992074 1.0 0.0
5.198484848477777 1.0 0.0
5.396969696963081 1.0 0.0
5.595454545448261 1.0 0.0
5.793939393933949 1.0 0.0
5.992424242419331 1.0 0.0
6.190909090904785 1.0 0.0
6.389393939390224 1.0 0.0
6.587878787875795 1.0 0.0
6.786363636361617 1.0 0.0
6.984848484846598 1.0 0.0
7.183333333331875 1.0 0.0
7.381818181816625 1.0 0.0
7.580303030301849 1.0 0.0
7.778787878786936 1.0 0.0
7.977272727272114 1.0 0.0
8.175757575757618 1.0 0.0
8.473728813558951 1.0 0.0
8.672457627118133 1.0 0.0
8.871186440676855 1.0 0.0
9.069915254236154 1.0 0.0
9.268644067794812 1.0 0.0
9.467372881354057 1.0 0.0
9.666101694912944 1.0 0.0
9.864830508471961 1.0 0.0
10.06355932203108 1.0 0.0
10.26228813558986 1.0 0.0
10.46101694914916 1.0 0.0
10.65974576270777 1.0 0.0
10.85847457626706 1.0 0.0
11.05720338982589 1.0 0.0
11.25593220338497 1.0 0.0
11.45466101694402 1.0 0.0
11.65338983050287 1.0 0.0
11.85211864406215 1.0 0.0
12.05084745762035 1.0 0.0
12.24957627117938 1.0 0.0
12.44830508473794 1.0 0.0
12.64703389829659 1.0 0.0
12.84576271185557 1.0 0.0
13.04449152541379 1.0 0.0
13.24322033897301 1.0 0.0
13.44194915253121 1.0 0.0
13.6406779660903 1.0 0.0
13.83940677964874 1.0 0.0
14.03813559320751 1.0 0.0
14.23686440676681 1.0 0.0
14.43559322032663 1.0 0.0
14.63432203388679 1.0 0.0
14.8330508474463 1.0 0.0
15.0317796610067 1.0 0.0
15.23050847456608 1.0 0.0
15.42923728812645 1.0 0.0
15.62796610168606 1.0 0.0
15.82669491524602 1.0 0.0
16.02542372880584 1.0 0.0
16.22415254236431 1.0 0.0
16.42288135592496 1.0 0.0
16.62161016948498 1.0 0.0
16.82033898304518 1.0 0.0
17.01906779660567 1.0 0.0
17.2177966101654 1.0 0.0
17.41652542372565 1.0 0.0
17.61525423728425 1.0 0.0
17.81398305084494 1.0 0.0
18.01271186440355 1.0 0.0
18.21144067796387 1.0 0.0
18.41016949152309 1.0 0.0
18.6088983050827 1.0 0.0
18.80762711864282 1.0 0.0
19.00635593220153 1.0 0.0
19.20508474576211 1.0 0.0
19.40381355932072 1.0 0.0
19.60254237288117 1.0 0.0
19.80127118644013 1.0 0.0
8.374364406779554 1.0 0.0
8.573093220338519 1.0 0.0
8.771822033897509 1.0 0.0
8.970550847456504 1.0 0.0
9.169279661015429 1.0 0.0
9.368008474574502 1.0 0.0
9.566737288133496 1.0 0.0
9.765466101692677 1.0 0.0
9.964194915251602 1.0 0.0
10.16292372881015 1.0 0.0
10.36165254236967 1.0 0.0
10.56038135592849 1.0 0.0
10.75911016948728 1.0 0.0
10.95783898304648 1.0 0.0
11.15656779660554 1.0 0.0
11.35529661016447 1.0 0.0
11.55402542372345 1.0 0.0
11.75275423728253 1.0 0.0
11.95148305084111 1.0 0.0
12.15021186439983 1.0 0.0
12.34894067795883 1.0 0.0
12.54766949151722 1.0 0.0
12.74639830507616 1.0 0.0
12.94512711863486 1.0 0.0
13.14385593219357 1.0 0.0
13.34258474575207 1.0 0.0
13.54131355931069 1.0 0.0
13.7400423728695 1.0 0.0
13.93877118642822 1.0 0.0
14.13749999998697 1.0 0.0
14.33622881354686 1.0 0.0
14.53495762710678 1.0 0.0
14.73368644066656 1.0 0.0
14.93241525422655 1.0 0.0
15.13114406778625 1.0 0.0
15.32987288134641 1.0 0.0
15.52860169490635 1.0 0.0
15.7273305084661 1.0 0.0
15.9260593220261 1.0 0.0
16.12478813558534 1.0 0.0
16.32351694914468 1.0 0.0
16.52224576270527 1.0 0.0
16.72097457626511 1.0 0.0
16.91970338982543 1.0 0.0
17.11843220338561 1.0 0.0
17.31716101694539 1.0 0.0
17.51588983050497 1.0 0.0
17.71461864406449 1.0 0.0
17.91334745762401 1.0 0.0
18.11207627118383 1.0 0.0
18.31080508474307 1.0 0.0
18.50953389830311 1.0 0.0
18.70826271186271 1.0 0.0
18.90699152542239 1.0 0.0
19.10572033898203 1.0 0.0
19.30444915254171 1.0 0.0
19.50317796610107 1.0 0.0
19.70190677966065 1.0 0.0
19.90063559322003 1.0 0.0
20.0 0.7999999999999998 0.0
20.0 0.6000000000013869 0.0
20.0 0.4000000000016644 0.0
20.0 0.2000000000008322 0.0
20.0 0.9000000000000369 0.0
20.0 0.7000000000005904 0.0
20.0 0.5000000000017577 0.0
20.0 0.3000000000012483 0.0
20.0 0.1000000000004161 0.0
19.8 0.0 0.0
19.6 0.0 0.0
19.4 0.0 0.0
19.2 0.0 0.0
19.0 0.0 0.0
18.8 0.0 0.0
18.6 0.0 0.0
18.4 0.0 0.0
18.2 0.0 0.0
18.0 0.0 0.0
17.8 0.0 0.0
17.59999999999999 0.0 0.0
17.4 0.0 0.0
17.2 0.0 0.0
16.99999999999999 0.0 0.0
16.79999999999999 0.0 0.0
16.59999999999999 0.0 0.0
16.4 0.0 0.0
16.2 0.0 0.0
15.99999999999999 0.0 0.0
15.79999999999999 0.0 0.0
15.59999999999999 0.0 0.0
15.4 0.0 0.0
15.2 0.0 0.0
15.0 0.0 0.0
14.79999999999999 0.0 0.0
14.59999999999999 0.0 0.0
14.4 0.0 0.0
14.2 0.0 0.0
13.99999999999999 0.0 0.0
13.8 0.0 0.0
13.59999999999999 0.0 0.0
13.4 0.0 0.0
13.2 0.0 0.0
13.0 0.0 0.0
12.79999999999999 0.0 0.0
12.6 0.0 0.0
12.4 0.0 0.0
12.2 0.0 0.0
11.99999999999999 0.0 0.0
11.8 0.0 0.0
11.6 0.0 0.0
11.4 0.0 0.0
11.2 0.0 0.0
11.0 0.0 0.0
10.8 0.0 0.0
10.6 0.0 0.0
10.4 0.0 0.0
10.2 0.0 0.0
9.999999999999998 0.0 0.0
9.799999999999995 0.0 0.0
9.599999999999998 0.0 0.0
9.399999999999997 0.0 0.0
9.199999999999998 0.0 0.0
8.999999999999996 0.0 0.0
8.799999999999997 0.0 0.0
8.599999999999996 0.0 0.0
8.399999999999999 0.0 0.0
8.199999999999996 0.0 0.0
7.999999999999998 0.0 0.0
7.799999999999997 0.0 0.0
7.599999999999998 0.0 0.0
7.399999999999999 0.0 0.0
7.199999999999998 0.0 0.0
6.999999999999995 0.0 0.0
6.799999999999995 0.0 0.0
6.599999999999998 0.0 0.0
6.399999999999997 0.0 0.0
6.199999999999996 0.0 0.0
5.999999999999998 0.0 0.0
5.799999999999999 0.0 0.0
5.599999999999996 0.0 0.0
5.399999999999995 0.0 0.0
5.199999999999996 0.0 0.0
4.999999999999998 0.0 0.0
4.799999999999997 0.0 0.0
4.599999999999998 0.0 0.0
4.399999999999999 0.0 0.0
4.199999999999999 0.0 0.0
3.999999999999996 0.0 0.0
3.799999999999997 0.0 0.0
3.599999999999998 0.0 0.0
3.399999999999999 0.0 0.0
3.199999999999999 0.0 0.0
3.0 0.0 0.0
2.800000000000001 0.0 0.0
2.599999999999998 0.0 0.0
2.399999999999999 0.0 0.0
2.199999999999996 0.0 0.0
1.999999999999996 0.0 0.0
1.800000000000001 0.0 0.0
1.599999999999998 0.0 0.0
1.399999999999999 0.0 0.0
1.200000000000003 0.0 0.0
1.0 0.0 0.0
0.7999999999999972 0.0 0.0
0.5999999999999979 0.0 0.0
0.3999999999999986 0.0 0.0
0.1999999999999993 0.0 0.0
19.90000000000022 0.0 0.0
19.69999999999997 0.0 0.0
19.49999999999987 0.0 0.0
19.30000000000005 0.0 0.0
19.09999999999999 0.0 0.0
18.89999999999987 0.0 0.0
18.7 0.0 0.0
18.49999999999999 0.0 0.0
18.30000000000001 0.0 0.0
18.09999999999987 0.0 0.0
17.90000000000013 0.0 0.0
17.7 0.0 0.0
17.49999999999987 0.0 0.0
17.30000000000025 0.0 0.0
17.10000000000001 0.0 0.0
16.90000000000005 0.0 0.0
16.70000000000003 0.0 0.0
16.50000000000006 0.0 0.0
16.29999999999997 0.0 0.0
16.09999999999999 0.0 0.0
15.89999999999987 0.0 0.0
15.69999999999999 0.0 0.0
15.49999999999999 0.0 0.0
15.3 0.0 0.0
15.10000000000003 0.0 0.0
14.90000000000005 0.0 0.0
14.69999999999992 0.0 0.0
14.49999999999996 0.0 0.0
14.29999999999999 0.0 0.0
14.10000000000008 0.0 0.0
13.89999999999988 0.0 0.0
13.70000000000003 0.0 0.0
13.50000000000004 0.0 0.0
13.29999999999992 0.0 0.0
13.09999999999995 0.0 0.0
12.90000000000016 0.0 0.0
12.7 0.0 0.0
12.49999999999986 0.0 0.0
12.30000000000003 0.0 0.0
12.10000000000016 0.0 0.0
11.90000000000005 0.0 0.0
11.69999999999994 0.0 0.0
11.49999999999993 0.0 0.0
11.30000000000005 0.0 0.0
11.0999999999999 0.0 0.0
10.90000000000004 0.0 0.0
10.69999999999995 0.0 0.0
10.50000000000012 0.0 0.0
10.29999999999999 0.0 0.0
10.09999999999993 0.0 0.0
9.900000000000077 0.0 0.0
9.699999999999969 0.0 0.0
9.499999999999982 0.0 0.0
9.299999999999969 0.0 0.0
9.100000000000108 0.0 0.0
8.899999999999972 0.0 0.0
8.699999999999958 0.0 0.0
8.499999999999998 0.0 0.0
8.30000000000003 0.0 0.0
8.099999999999977 0.0 0.0
7.899999999999974 0.0 0.0
7.700000000000166 0.0 0.0
7.499999999999854 0.0 0.0
7.299999999999997 0.0 0.0
7.100000000000019 0.0 0.0
6.900000000000002 0.0 0.0
6.699999999999974 0.0 0.0
6.500000000000037 0.0 0.0
6.299999999999981 0.0 0.0
6.100000000000014 0.0 0.0
5.899999999999949 0.0 0.0
5.700000000000049 0.0 0.0
5.499999999999956 0.0 0.0
5.300000000000118 0.0 0.0
5.100000000000005 0.0 0.0
4.900000000000109 0.0 0.0
4.699999999999982 0.0 0.0
4.499999999999936 0.0 0.0
4.300000000000137 0.0 0.0
4.100000000000012 0.0 0.0
3.899999999999888 0.0 0.0
3.69999999999974 0.0 0.0
3.500000000000046 0.0 0.0
3.299999999999965 0.0 0.0
3.099999999999817 0.0 0.0
2.900000000000066 0.0 0.0
2.699999999999793 0.0 0.0
2.500000000000064 0.0 0.0
2.299999999999823 0.0 0.0
[...]
POINT_DATA 2790
VECTORS vector double
1.0 0.0 0.0
0.0 0.0 0.0
0.0 0.0 0.0
0.0 0.0 0.0
1.59049483482 0.0 0.0
1.0 0.0 0.0
0.0 0.0 0.0
0.0 0.0 0.0
0.0 0.0 0.0
0.0 0.0 0.0
0.0 0.0 0.0
0.0 0.0 0.0
0.0 0.0 0.0
0.0 0.0 0.0
0.0 0.0 0.0
0.0 0.0 0.0
0.0 0.0 0.0
0.0 0.0 0.0
0.0 0.0 0.0
0.0 0.0 0.0
0.0 0.0 0.0
0.0 0.0 0.0
0.0 0.0 0.0
0.0 0.0 0.0
0.0 0.0 0.0
0.0 0.0 0.0
0.0 0.0 0.0
0.0 0.0 0.0
0.0 0.0 0.0
0.0 0.0 0.0
0.0 0.0 0.0
0.0 0.0 0.0
0.0 0.0 0.0
0.0 0.0 0.0
0.0 0.0 0.0
0.0 0.0 0.0
0.0 0.0 0.0
0.0 0.0 0.0
0.0 0.0 0.0
0.0 0.0 0.0
0.0 0.0 0.0
0.0 0.0 0.0
0.0 0.0 0.0
0.0 0.0 0.0
0.0 0.0 0.0
0.0 0.0 0.0
0.0 0.0 0.0
0.0 0.0 0.0
0.0 0.0 0.0
0.0 0.0 0.0
0.0 0.0 0.0
0.0 0.0 0.0
0.0 0.0 0.0
0.0 0.0 0.0
0.0 0.0 0.0
0.0 0.0 0.0
0.0 0.0 0.0
0.0 0.0 0.0
0.0 0.0 0.0
0.0 0.0 0.0
0.0 0.0 0.0
0.0 0.0 0.0
0.0 0.0 0.0
0.0 0.0 0.0
0.0 0.0 0.0
0.0 0.0 0.0
0.0 0.0 0.0
0.0 0.0 0.0
0.0 0.0 0.0
0.0 0.0 0.0
0.0 0.0 0.0
0.0 0.0 0.0
0.0 0.0 0.0
0.0 0.0 0.0
0.0 0.0 0.0
0.0 0.0 0.0
0.0 0.0 0.0
0.0 0.0 0.0
0.0 0.0 0.0
0.0 0.0 0.0
0.0 0.0 0.0
0.0 0.0 0.0
0.0 0.0 0.0
0.0 0.0 0.0
0.0 0.0 0.0
0.0 0.0 0.0
0.0 0.0 0.0
0.0 0.0 0.0
0.0 0.0 0.0
0.0 0.0 0.0
0.0 0.0 0.0
0.0 0.0 0.0
0.0 0.0 0.0
0.0 0.0 0.0
0.0 0.0 0.0
0.0 0.0 0.0
0.0 0.0 0.0
0.0 0.0 0.0
0.0 0.0 0.0
0.0 0.0 0.0
0.0 0.0 0.0
0.0 0.0 0.0
0.0 0.0 0.0
0.0 0.0 0.0
0.0 0.0 0.0
0.0 0.0 0.0
0.0 0.0 0.0
0.0 0.0 0.0
0.0 0.0 0.0
0.0 0.0 0.0
0.0 0.0 0.0
0.0 0.0 0.0
0.0 0.0 0.0
0.0 0.0 0.0
0.0 0.0 0.0
0.0 0.0 0.0
0.0 0.0 0.0
0.0 0.0 0.0
0.0 0.0 0.0
0.0 0.0 0.0
0.0 0.0 0.0
0.0 0.0 0.0
0.0 0.0 0.0
0.0 0.0 0.0
0.0 0.0 0.0
0.0 0.0 0.0
0.0 0.0 0.0
0.0 0.0 0.0
0.0 0.0 0.0
0.0 0.0 0.0
0.0 0.0 0.0
0.0 0.0 0.0
0.0 0.0 0.0
0.0 0.0 0.0
0.0 0.0 0.0
0.0 0.0 0.0
0.0 0.0 0.0
0.0 0.0 0.0
0.0 0.0 0.0
0.0 0.0 0.0
0.0 0.0 0.0
0.0 0.0 0.0
0.0 0.0 0.0
0.0 0.0 0.0
0.0 0.0 0.0
0.0 0.0 0.0
0.0 0.0 0.0
0.0 0.0 0.0
0.0 0.0 0.0
0.0 0.0 0.0
0.0 0.0 0.0
0.0 0.0 0.0
0.0 0.0 0.0
0.0 0.0 0.0
0.0 0.0 0.0
0.0 0.0 0.0
0.0 0.0 0.0
0.0 0.0 0.0
0.0 0.0 0.0
0.0 0.0 0.0
0.0 0.0 0.0
0.0 0.0 0.0
0.0 0.0 0.0
0.0 0.0 0.0
0.0 0.0 0.0
0.0 0.0 0.0
0.0 0.0 0.0
0.0 0.0 0.0
0.0 0.0 0.0
0.0 0.0 0.0
0.0 0.0 0.0
0.0 0.0 0.0
0.0 0.0 0.0
0.0 0.0 0.0
0.0 0.0 0.0
0.0 0.0 0.0
0.0 0.0 0.0
0.0 0.0 0.0
0.0 0.0 0.0
0.0 0.0 0.0
0.0 0.0 0.0
0.0 0.0 0.0
0.0 0.0 0.0
0.0 0.0 0.0
0.0 0.0 0.0
0.0 0.0 0.0
0.0 0.0 0.0
0.0 0.0 0.0
0.0 0.0 0.0
0.0 0.0 0.0
0.0 0.0 0.0
0.0 0.0 0.0
0.0 0.0 0.0
0.0 0.0 0.0
0.0 0.0 0.0
0.0 0.0 0.0
0.0 0.0 0.0
0.0 0.0 0.0
0.0 0.0 0.0
0.0 0.0 0.0
0.0 0.0 0.0
0.0 0.0 0.0
0.0 0.0 0.0
0.0 0.0 0.0
0.0 0.0 0.0
0.539306759311 0.000108672292073 0.0
0.955010522452 -3.15695562756e-05 0.0
1.2493688271 -0.000417852064237 0.0
1.44675263607 -0.000423801226365 0.0
0.274927352604 -9.1945029991e-05 0.0
0.752829293843 0.00116308448082 0.0
1.10728667646 -3.7139405947e-05 0.0
1.3510708466 -0.000806164875604 0.0
1.51805892844 -0.000280593932573 0.0
1.58938794945 0.0 0.0
1.58917220896 0.0 0.0
1.58896752654 0.0 0.0
1.58863567716 0.0 0.0
1.58721681875 0.0 0.0
1.58715947394 0.0 0.0
1.58613985294 0.0 0.0
1.58405509502 0.0 0.0
1.58303492508 0.0 0.0
1.58144812436 0.0 0.0
1.57899013806 0.0 0.0
1.5776762104 0.0 0.0
1.57586329421 0.0 0.0
1.57326944699 0.0 0.0
1.57030945855 0.0 0.0
1.56817529843 0.0 0.0
1.56701394778 0.0 0.0
1.5639039422 0.0 0.0
1.56150969486 0.0 0.0
1.56015269484 0.0 0.0
1.556793795 0.0 0.0
1.55415634786 0.0 0.0
1.55255478003 0.0 0.0
1.54891496706 0.0 0.0
1.54599095611 0.0 0.0
1.54412966361 0.0 0.0
1.54019097997 0.0 0.0
1.53696499432 0.0 0.0
1.53483358652 0.0 0.0
1.53058269808 0.0 0.0
1.52704687132 0.0 0.0
1.52464311786 0.0 0.0
1.52007877023 0.0 0.0
1.51623963097 0.0 0.0
1.51358742331 0.0 0.0
1.50872354666 0.0 0.0
1.50459705631 0.0 0.0
1.50173339938 0.0 0.0
1.49629384347 0.0 0.0
1.49165101082 0.0 0.0
1.48857127504 0.0 0.0
1.48333673787 0.0 0.0
1.47853000434 0.0 0.0
1.47525329495 0.0 0.0
1.46980775417 0.0 0.0
1.46478686149 0.0 0.0
1.46132780457 0.0 0.0
1.45571509719 0.0 0.0
1.45057096265 0.0 0.0
1.44681425127 0.0 0.0
1.44109860996 0.0 0.0
1.43585982074 0.0 0.0
1.43172018052 0.0 0.0
1.42859600529 0.0 0.0
1.42223556049 0.0 0.0
1.41563691702 0.0 0.0
1.40995299601 0.0 0.0
1.40515591216 0.0 0.0
1.39888680847 0.0 0.0
1.39301836423 0.0 0.0
1.38855319732 0.0 0.0
1.38204376384 0.0 0.0
1.37582380204 0.0 0.0
1.3711348405 0.0 0.0
1.36435328358 0.0 0.0
1.35788502461 0.0 0.0
1.35286530306 0.0 0.0
1.34583608002 0.0 0.0
1.33916044957 0.0 0.0
1.33351554286 0.0 0.0
1.32830553695 0.0 0.0
1.32007692225 0.0 0.0
1.31315980294 0.0 0.0
1.30550061973 0.0 0.0
1.29705361132 0.0 0.0
1.28987282062 0.0 0.0
1.28093999464 0.0 0.0
1.27211798261 0.0 0.0
1.26404378415 0.0 0.0
1.2560102493 0.0 0.0
1.24693884522 0.0 0.0
1.23819994511 0.0 0.0
1.22930342346 0.0 0.0
1.21968473904 0.0 0.0
1.2101596474 0.0 0.0
1.20017080049 0.0 0.0
1.18984508958 0.0 0.0
1.17917924861 0.0 0.0
1.1677996026 0.0 0.0
1.1563533229 0.0 0.0
1.14396055088 0.0 0.0
1.13024371102 0.0 0.0
1.11623079286 0.0 0.0
1.10045005556 0.0 0.0
1.0821277736 0.0 0.0
1.06296785081 0.0 0.0
1.04114608994 0.0 0.0
1.01933073368 0.0 0.0
1.00433582113 0.0 0.0
1.58980933791 0.0 0.0
1.5887573948 0.0 0.0
1.58976638937 0.0 0.0
1.58809423213 0.0 0.0
1.58732543377 0.0 0.0
1.58685103633 0.0 0.0
1.58731512091 0.0 0.0
1.58448129646 0.0 0.0
1.5829370408 0.0 0.0
1.58286795273 0.0 0.0
1.57956534283 0.0 0.0
1.5776796491 0.0 0.0
1.57735038888 0.0 0.0
1.57388268654 0.0 0.0
1.57183845314 0.0 0.0
1.56864960029 0.0 0.0
1.56776091727 0.0 0.0
1.56554266916 0.0 0.0
1.5620524174 0.0 0.0
1.56097918445 0.0 0.0
1.5585214154 0.0 0.0
1.5547960167 0.0 0.0
1.55349276219 0.0 0.0
1.55075642585 0.0 0.0
1.54673591364 0.0 0.0
1.54518109318 0.0 0.0
1.54215361322 0.0 0.0
1.53781855846 0.0 0.0
1.53600240772 0.0 0.0
1.53267250359 0.0 0.0
1.52801116414 0.0 0.0
1.5259283147 0.0 0.0
1.52229739614 0.0 0.0
1.51730912032 0.0 0.0
1.514978801 0.0 0.0
1.51108313157 0.0 0.0
1.50581206769 0.0 0.0
1.5031981515 0.0 0.0
1.49892770995 0.0 0.0
1.49314043094 0.0 0.0
1.48983300695 0.0 0.0
1.48605517981 0.0 0.0
1.48009120743 0.0 0.0
1.47658039977 0.0 0.0
1.47261147953 0.0 0.0
1.46642765238 0.0 0.0
1.4627220328 0.0 0.0
1.45859013417 0.0 0.0
1.45224820847 0.0 0.0
1.44831243144 0.0 0.0
1.44401134371 0.0 0.0
1.43763170657 0.0 0.0
1.43348702443 0.0 0.0
1.42895463585 0.0 0.0
1.42451019839 0.0 0.0
1.4186464603 0.0 0.0
1.4118519087 0.0 0.0
1.40719670184 0.0 0.0
1.40200655705 0.0 0.0
1.39516159805 0.0 0.0
1.39037360803 0.0 0.0
1.38529233886 0.0 0.0
1.3779771682 0.0 0.0
1.37303649094 0.0 0.0
1.36770571701 0.0 0.0
1.36018129069 0.0 0.0
1.35491792298 0.0 0.0
1.34928696855 0.0 0.0
1.34163197675 0.0 0.0
1.33591367959 0.0 0.0
1.32976176306 0.0 0.0
1.32326510759 0.0 0.0
1.3159768129 0.0 0.0
1.30867846029 0.0 0.0
1.30070811356 0.0 0.0
1.29293787184 0.0 0.0
1.28423284704 0.0 0.0
1.27608477088 0.0 0.0
1.26755822852 0.0 0.0
1.25985991069 0.0 0.0
1.25098148081 0.0 0.0
1.2421176111 0.0 0.0
1.23355790123 0.0 0.0
1.22410683583 0.0 0.0
1.21463235251 0.0 0.0
1.2049614633 0.0 0.0
1.19476356732 0.0 0.0
1.18441070756 0.0 0.0
1.17330273221 0.0 0.0
1.16199285039 0.0 0.0
1.15023836755 0.0 0.0
1.13697033703 0.0 0.0
1.12329824151 0.0 0.0
1.10860883807 0.0 0.0
1.09118985255 0.0 0.0
1.07260785755 0.0 0.0
1.05252380838 0.0 0.0
1.03001718787 0.0 0.0
1.01139796052 0.0 0.0
0.9996567204 0.0 0.0
1.0 0.0 0.0
1.0 0.0 0.0
1.0 0.0 0.0
1.0 0.0 0.0
1.0 0.0 0.0
1.0 0.0 0.0
1.0 0.0 0.0
1.0 0.0 0.0
1.0 0.0 0.0
1.16687089274 -0.0699257451596 0.0
1.22337802031 -0.0459943153022 0.0
1.22737392496 -0.0314492285984 0.0
1.08220983148 -0.000258387926373 0.0
1.11958207577 -0.000604622791033 0.0
1.11967907512 -0.00088194649228 0.0
1.11824110861 -0.00111703115473 0.0
1.11784047715 -0.00132145256791 0.0
1.11953962272 -0.00149006178956 0.0
1.12121285927 -0.00165189778199 0.0
1.12313139625 -0.00181657593251 0.0
1.12533445019 -0.00201300712241 0.0
1.1278384425 -0.00223676090026 0.0
1.13064325733 -0.00248130213678 0.0
1.13373539329 -0.00273277707739 0.0
1.08886786526 -0.00270597590601 0.0
1.09306321538 -0.00286050105678 0.0
1.09749739226 -0.00309336528925 0.0
1.10213324809 -0.00327266602246 0.0
1.15812556645 -0.0045665433423 0.0
1.22056318813 -0.0231075609042 0.0
1.12937684675 -0.00459825226084 0.0
1.10714114247 -0.00338067126479 0.0
1.20724286511 -0.0177694674477 0.0
1.1367244974 -0.00510054957683 0.0
1.14834915925 -0.00398771544838 0.0
1.1937653568 -0.0140472796819 0.0
1.14514420745 -0.00558039832999 0.0
1.18122387701 -0.0114426318417 0.0
1.18257598224 -0.00687260827114 0.0
1.19349614762 -0.0106748944473 0.0
1.15444730359 -0.00450515987784 0.0
1.1702997812 -0.00997296294592 0.0
0.876599421984 -0.000815270685251 0.0
1.19872969871 -0.148618161093 0.0
1.29299690712 -0.0108379984311 0.0
1.2810549624 -0.0126621636836 0.0
1.31152701612 -0.00733278080365 0.0
1.26658367664 -0.0149347138007 0.0
1.31240475816 -0.00656512417916 0.0
1.21679306408 -0.0211262771122 0.0
1.2460573196 -0.0177357398581 0.0
1.31473946344 -0.0060041063584 0.0
1.31644563499 -0.00553960684936 0.0
1.3195551082 -0.00471211428323 0.0
1.32051929365 -0.00443307271616 0.0
1.32112660523 -0.00421557606128 0.0
1.32173924587 -0.00398019001625 0.0
1.32214117408 -0.00372618395408 0.0
1.31314545918 -0.00351321459283 0.0
1.31305947142 -0.00321117923455 0.0
1.31307009446 -0.00293021048869 0.0
1.20909211664 -0.0552546631578 0.0
1.31292842377 -0.00264632243644 0.0
1.31279885898 -0.00238807626886 0.0
1.31270890562 -0.00215460983836 0.0
1.17530075179 -0.025773193466 0.0
1.31268267669 -0.00194221372564 0.0
1.13827897039 -0.029526223106 0.0
1.12676306457 -0.0348586306328 0.0
1.31083888999 -0.00171723963229 0.0
1.31083727304 -0.00161357909258 0.0
0.833732895337 -0.000440333626956 0.0
1.31026388244 -0.00130536821852 0.0
0.834099589135 -0.000474454843335 0.0
0.972295469324 -0.00723027579965 0.0
0.99196328223 -0.00862853469646 0.0
0.931573832072 -0.00318765354971 0.0
1.08601407994 -0.0197764001046 0.0
1.01595890462 -0.0109694894893 0.0
0.919064194144 -0.00350821894137 0.0
1.04635879775 -0.0145387846806 0.0
0.908812967055 -0.00327193495621 0.0
0.899735448888 -0.00286578825059 0.0
0.891486005203 -0.00218729634612 0.0
0.884793478707 -0.00237126402208 0.0
0.878531980551 -0.00227672820703 0.0
0.872579675992 -0.0021448972806 0.0
0.867040811333 -0.00200924717526 0.0
0.862052315949 -0.00177734455646 0.0
0.857382871729 -0.00166098125484 0.0
0.853250769771 -0.0014824020642 0.0
0.849495180107 -0.00132962726762 0.0
0.846123463385 -0.00120394021087 0.0
0.843096966137 -0.00109767485212 0.0
1.31417440995 -0.000882540699257 0.0
0.840373040895 -0.000997029275925 0.0
0.837909998366 -0.000937733979634 0.0
0.835811938285 -0.000777027193829 0.0
0.834079672306 -0.000604492030603 0.0
1.33142231161 -0.000569129178067 0.0
1.03200716382 -0.0342301365666 0.0
1.33691404293 -0.000193251109816 0.0
1.31905277943 -0.00512147927275 0.0
1.31273468458 -0.00850395185187 0.0
1.30402891283 -0.00965821235347 0.0
1.33034885924 -0.00535899371367 0.0
0.835826391193 -0.00338745299593 0.0
0.876058281989 -0.00232068428737 0.0
0.893596305755 -0.00363250425375 0.0
0.90300734894 -0.00778816407829 0.0
1.1759748191 -0.0732443921109 0.0
1.03555350869 -0.0269013157446 0.0
1.3390390335 -0.000524703770297 0.0
1.38598370616 -0.00335565093454 0.0
1.38245068351 -0.0036096514804 0.0
1.13744227144 -0.0210035849924 0.0
1.37598572386 -0.00334877270125 0.0
1.07387875497 -0.0283528127903 0.0
1.37843496748 -0.00382544949244 0.0
1.37818207042 -0.00306261759692 0.0
1.38005730511 -0.00278931173258 0.0
1.36954202507 -0.00408102494554 0.0
0.947071615701 -0.0156373503828 0.0
1.38173439794 -0.00252528340397 0.0
1.36556214031 -0.00423390672273 0.0
1.38326052447 -0.0022812990209 0.0
1.38467790654 -0.0020628964025 0.0
1.18368429092 -0.0171331989917 0.0
1.38602368904 -0.00185438184099 0.0
1.37702825871 -0.00167376753954 0.0
1.42649763014 -0.00140043768463 0.0
0.611660992377 3.10523209532e-05 0.0
1.35473755325 -0.00494379495896 0.0
1.42400568821 -0.00121423436993 0.0
0.627332556298 -6.67105103746e-05 0.0
0.587126087007 0.000238206387996 0.0
1.42434487539 -0.000853588297892 0.0
0.611812269534 1.92945155256e-05 0.0
1.35017932821 -0.00524219418304 0.0
1.22003487607 -0.0145222839746 0.0
0.613148096053 -3.30254276835e-05 0.0
0.614999555747 -7.23561352128e-05 0.0
0.617078634546 -0.00010555845753 0.0
0.619415456861 -0.000138279414948 0.0
1.34346304771 -0.0056515953647 0.0
1.24984048522 -0.0125614113154 0.0
0.622028009315 -0.000185626083274 0.0
0.624965671721 -0.000242035200138 0.0
0.628281439711 -0.000314187823417 0.0
0.631913710021 -0.000361850234041 0.0
0.636653858873 -0.000560732018887 0.0
1.33500713728 -0.00609576218482 0.0
1.27343533597 -0.0109265591548 0.0
0.641170824682 -0.000621061250087 0.0
0.6461069454 -0.000707356646685 0.0
0.516922277462 -0.000582064977271 0.0
0.651422867356 -0.000774586902786 0.0
0.838509234542 -0.00818705070765 0.0
0.676113053156 -0.000918369845997 0.0
0.799721008256 -0.00580954369645 0.0
0.684317180615 -0.00110793760728 0.0
0.656735421506 -0.000781478499062 0.0
0.771032833056 -0.00431904259492 0.0
0.692914750316 -0.000967484561507 0.0
0.748725245206 -0.003282838149 0.0
0.540232803273 0.000296631048582 0.0
0.626365883524 -0.00233020892718 0.0
0.559705077504 -0.000243725593034 0.0
1.32361672557 -0.00616039012348 0.0
1.29252548277 -0.00968840963044 0.0
1.30575550967 -0.0089439750144 0.0
1.32977305447 -0.0069191321342 0.0
1.35879861451 -0.0047000958772 0.0
1.36702394379 -0.00430625421307 0.0
0.643873646841 -0.00273966979952 0.0
0.857858477079 -0.0078510269565 0.0
1.42734722805 -0.000484641323862 0.0
1.03586161021 -0.0503801915814 0.0
1.11442663276 -0.000614406290754 0.0
1.18292207512 -0.000427833643513 0.0
1.04061687406 -0.0194168919628 0.0
0.509162475137 4.49724642031e-05 0.0
1.10213415738 -0.0770016641528 0.0
1.02591884526 -0.0661199349918 0.0
0.556477322909 -0.00136271079648 0.0
1.42933189267 -0.0028460158635 0.0
1.42423352729 -0.00306591412505 0.0
1.43316485334 -0.00253470765317 0.0
1.41786607298 -0.00323799255873 0.0
1.27821440413 -0.291942744262 0.0
1.41058622378 -0.00341876588389 0.0
1.43798199475 -0.00232313233959 0.0
1.40349842541 -0.00351112653013 0.0
1.44231664279 -0.00211157647368 0.0
1.44622943238 -0.00190782838548 0.0
1.19537675052 -0.0102244260838 0.0
1.37295543052 -0.00427989711242 0.0
1.10733882475 -0.0159262937903 0.0
1.36277453795 -0.00454478612485 0.0
1.22941804695 -0.00900268843433 0.0
1.4497591261 -0.00171729735104 0.0
1.35146788005 -0.00484293419656 0.0
1.25829920705 -0.0079652467081 0.0
1.15536199745 -0.0121153547656 0.0
1.28279856482 -0.00710871448865 0.0
1.45295988081 -0.00154245783201 0.0
1.4546350455 -0.00138601108462 0.0
1.45612804813 -0.00127710436626 0.0
1.4552690265 -0.000928883954096 0.0
1.4585377084 -0.000730091705029 0.0
1.46088471194 -0.000465223822783 0.0
1.1593840173 -0.00436083587565 0.0
0.752001637536 -0.00971957255449 0.0
0.805311092171 -0.0168338249041 0.0
0.866637589706 -0.022310714049 0.0
0.719427540238 -0.00853499587271 0.0
0.48057196661 -0.000528025698088 0.0
0.481875867822 -0.000537553515513 0.0
0.483526221245 -0.000582385099805 0.0
1.205949273 -0.00850244288675 0.0
0.485420134473 -0.000604401569022 0.0
0.487525504421 -0.000642735226922 0.0
0.489847228912 -0.000684743883167 0.0
1.12015613881 -0.000482720099888 0.0
1.21034035484 -0.0107748190862 0.0
0.492431655843 -0.000734701320316 0.0
1.11945602834 -0.000374941852622 0.0
0.495328430575 -0.00079928908232 0.0
0.498573594038 -0.000888141396553 0.0
0.50194229353 -0.00053468781355 0.0
0.505794904139 -0.000580711570939 0.0
1.10848418053 -0.000999606351817 0.0
0.510054141869 -0.0006358541125 0.0
1.10983951012 -0.000781282699346 0.0
0.486838465643 -0.000373611792354 0.0
0.514658254295 -0.00068795080143 0.0
1.11126899443 -0.00104769624681 0.0
0.488788014713 -0.000519786043271 0.0
1.11332295576 -0.0011754318256 0.0
0.486177673985 -0.000760871199933 0.0
0.519511072198 -0.000784428989434 0.0
1.11514440734 -0.00132898032123 0.0
0.486674950981 -0.00054544147684 0.0
0.510195159566 -0.000329881743259 0.0
1.11722836771 -0.00150488306128 0.0
0.691792433338 -0.00793092875429 0.0
1.11958856593 -0.00170606996129 0.0
1.12226885694 -0.00193743345105 0.0
0.538082577771 -0.000686435056795 0.0
1.12513725814 -0.00217494945345 0.0
1.12567655455 -0.00252230580065 0.0
1.22877489272 -0.026524857495 0.0
0.655111849046 -0.00533106107863 0.0
0.545057806061 -0.00112952661702 0.0
1.12732782713 -0.00258546170305 0.0
1.13129001028 -0.0028013263416 0.0
0.628761752546 -0.00409824442401 0.0
0.552521636731 -0.00120588227334 0.0
1.13546113089 -0.00295545779887 0.0
0.608777185267 -0.00327758906567 0.0
0.535745525149 -0.000596094867531 0.0
1.13987538185 -0.00312078608525 0.0
1.1419142058 -0.00329359813733 0.0
0.578987675785 -0.00233685438829 0.0
1.15352799181 -0.00489354535089 0.0
1.16003811054 -0.00426637371133 0.0
1.16649187007 -0.00464013835102 0.0
1.2237127107 -0.0206182382795 0.0
1.1735931811 -0.00513521786781 0.0
1.21579814428 -0.0164799296643 0.0
1.17813030205 -0.00579292415184 0.0
1.20723788195 -0.0135305302201 0.0
1.19578186297 -0.0114234546261 0.0
1.22124760304 -0.0375533767374 0.0
1.19960047549 -0.0519537824541 0.0
1.18250503074 -0.0547079179696 0.0
1.19359708327 -0.00991179656619 0.0
1.22521478927 -0.0352647338746 0.0
1.22637240602 -0.0268828770326 0.0
1.20278334 -0.012115626517 0.0
1.16972845493 -0.00709225465921 0.0
1.21265604085 -0.0152846547122 0.0
1.16150172907 -0.00654780440834 0.0
1.22163156312 -0.0197668163626 0.0
1.15480494822 -0.00600217883389 0.0
0.603976802783 -0.00219441730705 0.0
1.15488319191 -0.00519282780984 0.0
0.623712450434 -0.00308219000496 0.0
0.562138293194 -0.00137723759267 0.0
0.695124981153 -0.00748153116172 0.0
1.13563723432 -0.00454884672083 0.0
0.64594809471 -0.00393949910048 0.0
0.559006590279 -0.00168811440696 0.0
1.13151413247 -0.00447696757668 0.0
1.1272648163 -0.00427689807729 0.0
0.675681553191 -0.00524523108801 0.0
0.551741903284 -0.00158790227056 0.0
1.12321884668 -0.00402621788992 0.0
1.45463839519 -0.00140862240007 0.0
1.1193349865 -0.00378263972362 0.0
1.12916557886 -0.00323907625159 0.0
0.522149186257 -0.000479920118887 0.0
1.12659737872 -0.00297946909338 0.0
1.12388720806 -0.00273453595427 0.0
1.12141875144 -0.00249753914659 0.0
1.11924678269 -0.00229031701506 0.0
1.11735191675 -0.00211227648255 0.0
1.11571336864 -0.00194376797246 0.0
1.11371838703 -0.0018747425803 0.0
1.11173874575 -0.00058402504134 0.0
1.11283027839 -0.00122759498395 0.0
1.11201529611 -0.0012028890997 0.0
1.10694946078 -0.000916121080293 0.0
1.38235757481 -0.00401840264765 0.0
1.45615816985 -0.00147828468776 0.0
0.531251027625 -0.00132550668356 0.0
0.521665016494 -0.00135267198857 0.0
0.516823314322 -0.00129225693614 0.0
0.512294069488 -0.00124670889731 0.0
0.508121866841 -0.00119626016187 0.0
1.45441232497 -0.00142912101911 0.0
0.504549802105 -0.000814526827925 0.0
0.501154916183 -0.000848958332821 0.0
0.498018183284 -0.000769004361826 0.0
0.495228099251 -0.000713417796273 0.0
0.492733361162 -0.000668439842982 0.0
0.490489500272 -0.000630765071155 0.0
1.45303334687 -0.00161165032953 0.0
0.488462691734 -0.000588767557496 0.0
0.486618172667 -0.000556424119669 0.0
0.485105265206 -0.000497366041352 0.0
0.487172735541 -0.000155532996345 0.0
1.44989788889 -0.00179289127234 0.0
1.44646577407 -0.00197983489353 0.0
1.31107910393 -0.00703597493804 0.0
1.44268790397 -0.00218177678585 0.0
1.33232303418 -0.00517047207426 0.0
0.878917895352 -0.000285446443793 0.0
1.43851411426 -0.00239439183229 0.0
1.00646846402 -0.0118628987537 0.0
1.08303531282 -0.0178749661587 0.0
1.45590888858 -0.00108941263352 0.0
1.4338831498 -0.00259596907532 0.0
1.21650653609 -0.102666077494 0.0
1.42900646456 -0.00277281076202 0.0
1.4385281589 -0.00227957424604 0.0
1.38881404053 -0.00343662295432 0.0
1.43117479176 -0.00242310509981 0.0
1.42324224801 -0.00256224679056 0.0
1.45544560541 -0.000459352587243 0.0
1.41443363024 -0.00273828144853 0.0
1.40584644728 -0.0027584630683 0.0
1.13401026751 -0.0107762070572 0.0
1.17617866024 -0.00894940274689 0.0
1.37999107487 -0.0032371023401 0.0
1.34411390368 -0.00384262491318 0.0
1.29183656176 -0.00576793960413 0.0
1.36915578584 -0.00345653240721 0.0
1.21180441488 -0.00791440677904 0.0
1.29647309554 -0.00206218888694 0.0