# vtk DataFile Version 2.0
2D Simulation Python
ASCII
DATASET UNSTRUCTURED_GRID
FIELD FieldData 1
NODES 1 2 int
2790 1289

POINTS 2790 double
0.0 1.0 0.0
1.725 1.0 0.0
8.275 1.0 0.0
20.0 1.0 0.0
20.0 0.0 0.0
0.0 0.0 0.0
0.1916666666663293 1.0 0.0
0.3833333333324708 1.0 0.0
0.574999999998553 1.0 0.0
0.7666666666645966 1.0 0.0
0.9583333333312576 1.0 0.0
1.149999999998384 1.0 0.0
1.341666666665662 1.0 0.0
1.533333333332819 1.0 0.0
0.0958333333331406 1.0 0.0
0.2874999999994247 1.0 0.0
0.4791666666655395 1.0 0.0
0.6708333333315728 1.0 0.0
0.8624999999976626 1.0 0.0
1.054166666664886 1.0 0.0
1.245833333332057 1.0 0.0
1.437499999999343 1.0 0.0
1.629166666666455 1.0 0.0
1.92348484848444 1.0 0.0
2.121969696968978 1.0 0.0
2.320454545453434 1.0 0.0
2.518939393937826 1.0 0.0
2.717424242422235 1.0 0.0
2.915909090906411 1.0 0.0
3.1143939393908 1.0 0.0
3.312878787875129 1.0 0.0
3.511363636359531 1.0 0.0
3.709848484843827 1.0 0.0
3.90833333332816 1.0 0.0
4.106818181812215 1.0 0.0
4.305303030296804 1.0 0.0
4.503787878781365 1.0 0.0
4.702272727265711 1.0 0.0
4.900757575750005 1.0 0.0
5.099242424235156 1.0 0.0
5.297727272720327 1.0 0.0
5.496212121205663 1.0 0.0
5.694696969690998 1.0 0.0
5.89318181817668 1.0 0.0
6.09166666666213 1.0 0.0
6.290151515147423 1.0 0.0
6.488636363633031 1.0 0.0
6.687121212118713 1.0 0.0
6.885606060604342 1.0 0.0
7.084090909089381 1.0 0.0
7.282575757574369 1.0 0.0
7.481060606059355 1.0 0.0
7.679545454544343 1.0 0.0
7.878030303029329 1.0 0.0
8.076515151514705 1.0 0.0
1.824242424242199 1.0 0.0
2.022727272726695 1.0 0.0
2.221212121211181 1.0 0.0
2.41969696969563 1.0 0.0
2.618181818180092 1.0 0.0
2.816666666664316 1.0 0.0
3.015151515148624 1.0 0.0
3.213636363633039 1.0 0.0
3.412121212117267 1.0 0.0
3.610606060601583 1.0 0.0
3.809090909085975 1.0 0.0
4.007575757570153 1.0 0.0
4.206060606054539 1.0 0.0
4.404545454539001 1.0 0.0
4.603030303023853 1.0 0.0
4.801515151507715 1.0 0.0
4.999999999992074 1.0 0.0
5.198484848477777 1.0 0.0
5.396969696963081 1.0 0.0
5.595454545448261 1.0 0.0
5.793939393933949 1.0 0.0
5.992424242419331 1.0 0.0
6.190909090904785 1.0 0.0
6.389393939390224 1.0 0.0
6.587878787875795 1.0 0.0
6.786363636361617 1.0 0.0
6.984848484846598 1.0 0.0
7.183333333331875 1.0 0.0
7.381818181816625 1.0 0.0
7.580303030301849 1.0 0.0
7.778787878786936 1.0 0.0
7.977272727272114 1.0 0.0
8.175757575757618 1.0 0.0
8.473728813558951 1.0 0.0
8.672457627118133 1.0 0.0
8.871186440676855 1.0 0.0
9.069915254236154 1.0 0.0
9.268644067794812 1.0 0.0
9.467372881354057 1.0 0.0
9.666101694912944 1.0 0.0
9.864830508471961 1.0 0.0
10.06355932203108 1.0 0.0
10.26228813558986 1.0 0.0
10.46101694914916 1.0 0.0
10.65974576270777 1.0 0.0
10.85847457626706 1.0 0.0
11.05720338982589 1.0 0.0
11.25593220338497 1.0 0.0
11.45466101694402 1.0 0.0
11.65338983050287 1.0 0.0
11.85211864406215 1.0 0.0
12.05084745762035 1.0 0.0
12.24957627117938 1.0 0.0
12.44830508473794 1.0 0.0
12.64703389829659 1.0 0.0
12.84576271185557 1.0 0.0
13.04449152541379 1.0 0.0
13.24322033897301 1.0 0.0
13.44194915253121 1.0 0.0
13.6406779660903 1.0 0.0
13.83940677964874 1.0 0.0
14.03813559320751 1.0 0.0
14.23686440676681 1.0 0.0
14.43559322032663 1.0 0.0
14.63432203388679 1.0 0.0
14.8330508474463 1.0 0.0
15.0317796610067 1.0 0.0
15.23050847456608 1.0 0.0
15.42923728812645 1.0 0.0
15.62796610168606 1.0 0.0
15.82669491524602 1.0 0.0
16.02542372880584 1.0 0.0
16.22415254236431 1.0 0.0
16.42288135592496 1.0 0.0
16.62161016948498 1.0 0.0
16.82033898304518 1.0 0.0
17.01906779660567 1.0 0.0
17.2177966101654 1.0 0.0
17.41652542372565 1.0 0.0
17.61525423728425 1.0 0.0
17.81398305084494 1.0 0.0
18.01271186440355 1.0 0.0
18.21144067796387 1.0 0.0
18.41016949152309 1.0 0.0
18.6088983050827 1.0 0.0
18.80762711864282 1.0 0.0
19.00635593220153 1.0 0.0
19.20508474576211 1.0 0.0
19.40381355932072 1.0 0.0
19.60254237288117 1.0 0.0
19.80127118644013 1.0 0.0
8.374364406779554 1.0 0.0
8.573093220338519 1.0 0.0
8.771822033897509 1.0 0.0
8.970550847456504 1.0 0.0
9.169279661015429 1.0 0.0
9.368008474574502 1.0 0.0
9.566737288133496 1.0 0.0
9.765466101692677 1.0 0.0
9.964194915251602 1.0 0.0
10.16292372881015 1.0 0.0
10.36165254236967 1.0 0.0
10.56038135592849 1.0 0.0
10.75911016948728 1.0 0.0
10.95783898304648 1.0 0.0
11.15656779660554 1.0 0.0
11.35529661016447 1.0 0.0
11.55402542372345 1.0 0.0
11.75275423728253 1.0 0.0
11.95148305084111 1.0 0.0
12.15021186439983 1.0 0.0
12.34894067795883 1.0 0.0
12.54766949151722 1.0 0.0
12.74639830507616 1.0 0.0
12.94512711863486 1.0 0.0
13.14385593219357 1.0 0.0
13.34258474575207 1.0 0.0
13.54131355931069 1.0 0.0
13.7400423728695 1.0 0.0
13.93877118642822 1.0 0.0
14.13749999998697 1.0 0.0
14.33622881354686 1.0 0.0
14.53495762710678 1.0 0.0
14.73368644066656 1.0 0.0
14.93241525422655 1.0 0.0
15.13114406778625 1.0 0.0
15.32987288134641 1.0 0.0
15.52860169490635 1.0 0.0
15.7273305084661 1.0 0.0
15.9260593220261 1.0 0.0
16.12478813558534 1.0 0.0
16.32351694914468 1.0 0.0
16.52224576270527 1.0 0.0
16.72097457626511 1.0 0.0
16.91970338982543 1.0 0.0
17.11843220338561 1.0 0.0
17.31716101694539 1.0 0.0
17.51588983050497 1.0 0.0
17.71461864406449 1.0 0.0
17.91334745762401 1.0 0.0
18.11207627118383 1.0 0.0
18.31080508474307 1.0 0.0
18.50953389830311 1.0 0.0
18.70826271186271 1.0 0.0
18.90699152542239 1.0 0.0
19.10572033898203 1.0 0.0
19.30444915254171 1.0 0.0
19.50317796610107 1.0 0.0
19.70190677966065 1.0 0.0
19.90063559322003 1.0 0.0
20.0 0.7999999999999998 0.0
20.0 0.6000000000013869 0.0
20.0 0.4000000000016644 0.0
20.0 0.2000000000008322 0.0
20.0 0.9000000000000369 0.0
20.0 0.7000000000005904 0.0
20.0 0.5000000000017577 0.0
20.0 0.3000000000012483 0.0
20.0 0.1000000000004161 0.0
19.8 0.0 0.0
19.6 0.0 0.0
19.4 0.0 0.0
19.2 0.0 0.0
19.0 0.0 0.0
18.8 0.0 0.0
18.6 0.0 0.0
18.4 0.0 0.0
18.2 0.0 0.0
18.0 0.0 0.0
17.8 0.0 0.0
17.59999999999999 0.0 0.0
17.4 0.0 0.0
17.2 0.0 0.0
16.99999999999999 0.0 0.0
16.79999999999999 0.0 0.0
16.59999999999999 0.0 0.0
16.4 0.0 0.0
16.2 0.0 0.0
15.99999999999999 0.0 0.0
15.79999999999999 0.0 0.0
15.59999999999999 0.0 0.0
15.4 0.0 0.0
15.2 0.0 0.0
15.0 0.0 0.0
14.79999999999999 0.0 0.0
14.59999999999999 0.0 0.0
14.4 0.0 0.0
14.2 0.0 0.0
13.99999999999999 0.0 0.0
13.8 0.0 0.0
13.59999999999999 0.0 0.0
13.4 0.0 0.0
13.2 0.0 0.0
13.0 0.0 0.0
12.79999999999999 0.0 0.0
12.6 0.0 0.0
12.4 0.0 0.0
12.2 0.0 0.0
11.99999999999999 0.0 0.0
11.8 0.0 0.0
11.6 0.0 0.0
11.4 0.0 0.0
11.2 0.0 0.0
11.0 0.0 0.0
10.8 0.0 0.0
10.6 0.0 0.0
10.4 0.0 0.0
10.2 0.0 0.0
9.999999999999998 0.0 0.0
9.799999999999995 0.0 0.0
9.599999999999998 0.0 0.0
9.399999999999997 0.0 0.0
9.199999999999998 0.0 0.0
8.999999999999996 0.0 0.0
8.799999999999997 0.0 0.0
8.599999999999996 0.0 0.0
8.399999999999999 0.0 0.0
8.199999999999996 0.0 0.0
7.999999999999998 0.0 0.0
7.799999999999997 0.0 0.0
7.599999999999998 0.0 0.0
7.399999999999999 0.0 0.0
7.199999999999998 0.0 0.0
6.999999999999995 0.0 0.0
6.799999999999995 0.0 0.0
6.599999999999998 0.0 0.0
6.399999999999997 0.0 0.0
6.199999999999996 0.0 0.0
5.999999999999998 0.0 0.0
5.799999999999999 0.0 0.0
5.599999999999996 0.0 0.0
5.399999999999995 0.0 0.0
5.199999999999996 0.0 0.0
4.999999999999998 0.0 0.0
4.799999999999997 0.0 0.0
4.599999999999998 0.0 0.0
4.399999999999999 0.0 0.0
4.199999999999999 0.0 0.0
3.999999999999996 0.0 0.0
3.799999999999997 0.0 0.0
3.599999999999998 0.0 0.0
3.399999999999999 0.0 0.0
3.199999999999999 0.0 0.0
3.0 0.0 0.0
2.800000000000001 0.0 0.0
2.599999999999998 0.0 0.0
2.399999999999999 0.0 0.0
2.199999999999996 0.0 0.0
1.999999999999996 0.0 0.0
1.800000000000001 0.0 0.0
1.599999999999998 0.0 0.0
1.399999999999999 0.0 0.0
1.200000000000003 0.0 0.0
1.0 0.0 0.0
0.7999999999999972 0.0 0.0
0.5999999999999979 0.0 0.0
0.3999999999999986 0.0 0.0
0.1999999999999993 0.0 0.0
19.90000000000022 0.0 0.0
19.69999999999997 0.0 0.0
19.49999999999987 0.0 0.0
19.30000000000005 0.0 0.0
19.09999999999999 0.0 0.0
18.89999999999987 0.0 0.0
18.7 0.0 0.0
18.49999999999999 0.0 0.0
18.30000000000001 0.0 0.0
18.09999999999987 0.0 0.0
17.90000000000013 0.0 0.0
17.7 0.0 0.0
17.49999999999987 0.0 0.0
17.30000000000025 0.0 0.0
17.10000000000001 0.0 0.0
16.90000000000005 0.0 0.0
16.70000000000003 0.0 0.0
16.50000000000006 0.0 0.0
16.29999999999997 0.0 0.0
16.09999999999999 0.0 0.0
15.89999999999987 0.0 0.0
15.69999999999999 0.0 0.0
15.49999999999999 0.0 0.0
15.3 0.0 0.0
15.10000000000003 0.0 0.0
14.90000000000005 0.0 0.0
14.69999999999992 0.0 0.0
14.49999999999996 0.0 0.0
14.29999999999999 0.0 0.0
14.10000000000008 0.0 0.0
13.89999999999988 0.0 0.0
13.70000000000003 0.0 0.0
13.50000000000004 0.0 0.0
13.29999999999992 0.0 0.0
13.09999999999995 0.0 0.0
12.90000000000016 0.0 0.0
12.7 0.0 0.0
12.49999999999986 0.0 0.0
12.30000000000003 0.0 0.0
12.10000000000016 0.0 0.0
11.90000000000005 0.0 0.0
11.69999999999994 0.0 0.0
11.49999999999993 0.0 0.0
11.30000000000005 0.0 0.0
11.0999999999999 0.0 0.0
10.90000000000004 0.0 0.0
10.69999999999995 0.0 0.0
10.50000000000012 0.0 0.0
10.29999999999999 0.0 0.0
10.09999999999993 0.0 0.0
9.900000000000077 0.0 0.0
9.699999999999969 0.0 0.0
9.499999999999982 0.0 0.0
9.299999999999969 0.0 0.0
9.100000000000108 0.0 0.0
8.899999999999972 0.0 0.0
8.699999999999958 0.0 0.0
8.499999999999998 0.0 0.0
8.30000000000003 0.0 0.0
8.099999999999977 0.0 0.0
7.899999999999974 0.0 0.0
7.700000000000166 0.0 0.0
7.499999999999854 0.0 0.0
7.299999999999997 0.0 0.0
7.100000000000019 0.0 0.0
6.900000000000002 0.0 0.0
6.699999999999974 0.0 0.0
6.500000000000037 0.0 0.0
6.299999999999981 0.0 0.0
6.100000000000014 0.0 0.0
5.899999999999949 0.0 0.0
5.700000000000049 0.0 0.0
5.499999999999956 0.0 0.0
5.300000000000118 0.0 0.0
5.100000000000005 0.0 0.0
4.900000000000109 0.0 0.0
4.699999999999982 0.0 0.0
4.499999999999936 0.0 0.0
4.300000000000137 0.0 0.0
4.100000000000012 0.0 0.0
3.899999999999888 0.0 0.0
3.69999999999974 0.0 0.0
3.500000000000046 0.0 0.0
3.299999999999965 0.0 0.0
3.099999999999817 0.0 0.0
2.900000000000066 0.0 0.0
2.699999999999793 0.0 0.0
2.500000000000064 0.0 0.0
2.299999999999823 0.0 0.0
[...]
POINT_DATA 2790
VECTORS vector double
1.0 0.0 0.0
0.0 0.0 0.0
0.0 0.0 0.0
0.0 0.0 0.0
1.56030854182 0.0 0.0
1.0 0.0 0.0
0.0 0.0 0.0
0.0 0.0 0.0
0.0 0.0 0.0
0.0 0.0 0.0
0.0 0.0 0.0
0.0 0.0 0.0
0.0 0.0 0.0
0.0 0.0 0.0
0.0 0.0 0.0
0.0 0.0 0.0
0.0 0.0 0.0
0.0 0.0 0.0
0.0 0.0 0.0
0.0 0.0 0.0
0.0 0.0 0.0
0.0 0.0 0.0
0.0 0.0 0.0
0.0 0.0 0.0
0.0 0.0 0.0
0.0 0.0 0.0
0.0 0.0 0.0
0.0 0.0 0.0
0.0 0.0 0.0
0.0 0.0 0.0
0.0 0.0 0.0
0.0 0.0 0.0
0.0 0.0 0.0
0.0 0.0 0.0
0.0 0.0 0.0
0.0 0.0 0.0
0.0 0.0 0.0
0.0 0.0 0.0
0.0 0.0 0.0
0.0 0.0 0.0
0.0 0.0 0.0
0.0 0.0 0.0
0.0 0.0 0.0
0.0 0.0 0.0
0.0 0.0 0.0
0.0 0.0 0.0
0.0 0.0 0.0
0.0 0.0 0.0
0.0 0.0 0.0
0.0 0.0 0.0
0.0 0.0 0.0
0.0 0.0 0.0
0.0 0.0 0.0
0.0 0.0 0.0
0.0 0.0 0.0
0.0 0.0 0.0
0.0 0.0 0.0
0.0 0.0 0.0
0.0 0.0 0.0
0.0 0.0 0.0
0.0 0.0 0.0
0.0 0.0 0.0
0.0 0.0 0.0
0.0 0.0 0.0
0.0 0.0 0.0
0.0 0.0 0.0
0.0 0.0 0.0
0.0 0.0 0.0
0.0 0.0 0.0
0.0 0.0 0.0
0.0 0.0 0.0
0.0 0.0 0.0
0.0 0.0 0.0
0.0 0.0 0.0
0.0 0.0 0.0
0.0 0.0 0.0
0.0 0.0 0.0
0.0 0.0 0.0
0.0 0.0 0.0
0.0 0.0 0.0
0.0 0.0 0.0
0.0 0.0 0.0
0.0 0.0 0.0
0.0 0.0 0.0
0.0 0.0 0.0
0.0 0.0 0.0
0.0 0.0 0.0
0.0 0.0 0.0
0.0 0.0 0.0
0.0 0.0 0.0
0.0 0.0 0.0
0.0 0.0 0.0
0.0 0.0 0.0
0.0 0.0 0.0
0.0 0.0 0.0
0.0 0.0 0.0
0.0 0.0 0.0
0.0 0.0 0.0
0.0 0.0 0.0
0.0 0.0 0.0
0.0 0.0 0.0
0.0 0.0 0.0
0.0 0.0 0.0
0.0 0.0 0.0
0.0 0.0 0.0
0.0 0.0 0.0
0.0 0.0 0.0
0.0 0.0 0.0
0.0 0.0 0.0
0.0 0.0 0.0
0.0 0.0 0.0
0.0 0.0 0.0
0.0 0.0 0.0
0.0 0.0 0.0
0.0 0.0 0.0
0.0 0.0 0.0
0.0 0.0 0.0
0.0 0.0 0.0
0.0 0.0 0.0
0.0 0.0 0.0
0.0 0.0 0.0
0.0 0.0 0.0
0.0 0.0 0.0
0.0 0.0 0.0
0.0 0.0 0.0
0.0 0.0 0.0
0.0 0.0 0.0
0.0 0.0 0.0
0.0 0.0 0.0
0.0 0.0 0.0
0.0 0.0 0.0
0.0 0.0 0.0
0.0 0.0 0.0
0.0 0.0 0.0
0.0 0.0 0.0
0.0 0.0 0.0
0.0 0.0 0.0
0.0 0.0 0.0
0.0 0.0 0.0
0.0 0.0 0.0
0.0 0.0 0.0
0.0 0.0 0.0
0.0 0.0 0.0
0.0 0.0 0.0
0.0 0.0 0.0
0.0 0.0 0.0
0.0 0.0 0.0
0.0 0.0 0.0
0.0 0.0 0.0
0.0 0.0 0.0
0.0 0.0 0.0
0.0 0.0 0.0
0.0 0.0 0.0
0.0 0.0 0.0
0.0 0.0 0.0
0.0 0.0 0.0
0.0 0.0 0.0
0.0 0.0 0.0
0.0 0.0 0.0
0.0 0.0 0.0
0.0 0.0 0.0
0.0 0.0 0.0
0.0 0.0 0.0
0.0 0.0 0.0
0.0 0.0 0.0
0.0 0.0 0.0
0.0 0.0 0.0
0.0 0.0 0.0
0.0 0.0 0.0
0.0 0.0 0.0
0.0 0.0 0.0
0.0 0.0 0.0
0.0 0.0 0.0
0.0 0.0 0.0
0.0 0.0 0.0
0.0 0.0 0.0
0.0 0.0 0.0
0.0 0.0 0.0
0.0 0.0 0.0
0.0 0.0 0.0
0.0 0.0 0.0
0.0 0.0 0.0
0.0 0.0 0.0
0.0 0.0 0.0
0.0 0.0 0.0
0.0 0.0 0.0
0.0 0.0 0.0
0.0 0.0 0.0
0.0 0.0 0.0
0.0 0.0 0.0
0.0 0.0 0.0
0.0 0.0 0.0
0.0 0.0 0.0
0.0 0.0 0.0
0.0 0.0 0.0
0.0 0.0 0.0
0.0 0.0 0.0
0.0 0.0 0.0
0.0 0.0 0.0
0.0 0.0 0.0
0.0 0.0 0.0
0.0 0.0 0.0
0.0 0.0 0.0
0.0 0.0 0.0
0.0 0.0 0.0
0.552677184208 -2.94936375991e-05 0.0
0.968521248883 7.23051360912e-05 0.0
1.25384513153 -5.25859944278e-05 0.0
1.43483523317 -9.04804357827e-05 0.0
0.282865267513 0.000422042908837 0.0
0.765189112163 0.00136918209797 0.0
1.11568581765 0.000119237871531 0.0
1.34637479406 -0.000512779138626 0.0
1.49613084771 -0.000204733906391 0.0
1.55973265434 0.0 0.0
1.56013401197 0.0 0.0
1.56050468828 0.0 0.0
1.56083406321 0.0 0.0
1.56035052282 0.0 0.0
1.56122582767 0.0 0.0
1.56135868883 0.0 0.0
1.5608923449 0.0 0.0
1.56130087383 0.0 0.0
1.56127162246 0.0 0.0
1.56066814082 0.0 0.0
1.56086293748 0.0 0.0
1.56039628834 0.0 0.0
1.55900903657 0.0 0.0
1.55701872156 0.0 0.0
1.55548800831 0.0 0.0
1.55459206088 0.0 0.0
1.55183337523 0.0 0.0
1.54965299121 0.0 0.0
1.54838205905 0.0 0.0
1.54538805113 0.0 0.0
1.54315127599 0.0 0.0
1.54186325833 0.0 0.0
1.53878993003 0.0 0.0
1.53643696032 0.0 0.0
1.53500293853 0.0 0.0
1.5317136825 0.0 0.0
1.52911156773 0.0 0.0
1.52744061964 0.0 0.0
1.52386768938 0.0 0.0
1.52096168832 0.0 0.0
1.51900729939 0.0 0.0
1.51510482015 0.0 0.0
1.51185687118 0.0 0.0
1.50958167205 0.0 0.0
1.50529844735 0.0 0.0
1.50171455992 0.0 0.0
1.49919059992 0.0 0.0
1.49418692828 0.0 0.0
1.49008663466 0.0 0.0
1.48724726649 0.0 0.0
1.4822880332 0.0 0.0
1.47786812547 0.0 0.0
1.47474449886 0.0 0.0
1.46945767782 0.0 0.0
1.46471839605 0.0 0.0
1.4613430854 0.0 0.0
1.45576423165 0.0 0.0
1.45067949846 0.0 0.0
1.44705869778 0.0 0.0
1.44124502323 0.0 0.0
1.43576751369 0.0 0.0
1.43176542364 0.0 0.0
1.42859593284 0.0 0.0
1.42200583541 0.0 0.0
1.41540852156 0.0 0.0
1.40984003718 0.0 0.0
1.40508703741 0.0 0.0
1.39879393613 0.0 0.0
1.39308210563 0.0 0.0
1.3887170569 0.0 0.0
1.38207869322 0.0 0.0
1.37601307105 0.0 0.0
1.37134405582 0.0 0.0
1.36440026214 0.0 0.0
1.35804012105 0.0 0.0
1.35311846813 0.0 0.0
1.34592528836 0.0 0.0
1.33916839051 0.0 0.0
1.33366983355 0.0 0.0
1.32842255743 0.0 0.0
1.32010074856 0.0 0.0
1.31325433244 0.0 0.0
1.30551825234 0.0 0.0
1.29704444087 0.0 0.0
1.28989024728 0.0 0.0
1.28079971806 0.0 0.0
1.27195860593 0.0 0.0
1.26392409986 0.0 0.0
1.25604881744 0.0 0.0
1.24683766401 0.0 0.0
1.2380509797 0.0 0.0
1.22933801641 0.0 0.0
1.21963595193 0.0 0.0
1.20995756044 0.0 0.0
1.2001646176 0.0 0.0
1.18972216023 0.0 0.0
1.1789794792 0.0 0.0
1.16787988098 0.0 0.0
1.15624154137 0.0 0.0
1.1437918894 0.0 0.0
1.13052792457 0.0 0.0
1.11643144874 0.0 0.0
1.10047832129 0.0 0.0
1.08270818822 0.0 0.0
1.06308795867 0.0 0.0
1.04141451911 0.0 0.0
1.02037032554 0.0 0.0
1.00337317941 0.0 0.0
1.55938201326 0.0 0.0
1.55895176486 0.0 0.0
1.56047149206 0.0 0.0
1.55936688457 0.0 0.0
1.55953665805 0.0 0.0
1.56001213058 0.0 0.0
1.56152674575 0.0 0.0
1.56022736533 0.0 0.0
1.56013978349 0.0 0.0
1.5614664112 0.0 0.0
1.56005362429 0.0 0.0
1.55978855633 0.0 0.0
1.56082353786 0.0 0.0
1.5588202172 0.0 0.0
1.55773957243 0.0 0.0
1.5553952197 0.0 0.0
1.55489615235 0.0 0.0
1.55292459502 0.0 0.0
1.54976030149 0.0 0.0
1.54882486901 0.0 0.0
1.54658224928 0.0 0.0
1.54326739638 0.0 0.0
1.54231450162 0.0 0.0
1.5400326875 0.0 0.0
1.5366032031 0.0 0.0
1.53553451966 0.0 0.0
1.53305795547 0.0 0.0
1.52938232888 0.0 0.0
1.5280937818 0.0 0.0
1.5253416059 0.0 0.0
1.52135848571 0.0 0.0
1.51980459186 0.0 0.0
1.51673006807 0.0 0.0
1.5123959907 0.0 0.0
1.51053384649 0.0 0.0
1.50711838481 0.0 0.0
1.50244968617 0.0 0.0
1.50022050843 0.0 0.0
1.49635688019 0.0 0.0
1.49111363759 0.0 0.0
1.48813061868 0.0 0.0
1.48459700353 0.0 0.0
1.47906543126 0.0 0.0
1.47576859055 0.0 0.0
1.47193477916 0.0 0.0
1.46605423605 0.0 0.0
1.46248786501 0.0 0.0
1.45838179364 0.0 0.0
1.45216277258 0.0 0.0
1.4483143235 0.0 0.0
1.4440148034 0.0 0.0
1.43748549648 0.0 0.0
1.43324364934 0.0 0.0
1.42877715505 0.0 0.0
1.42433778957 0.0 0.0
1.41824499601 0.0 0.0
1.41157030068 0.0 0.0
1.40699396489 0.0 0.0
1.40181418146 0.0 0.0
1.39504353503 0.0 0.0
1.39038811928 0.0 0.0
1.38532555882 0.0 0.0
1.37805911373 0.0 0.0
1.37316295132 0.0 0.0
1.36777442252 0.0 0.0
1.36026125133 0.0 0.0
1.3550722879 0.0 0.0
1.34943834903 0.0 0.0
1.341672586 0.0 0.0
1.33599002436 0.0 0.0
1.32978106959 0.0 0.0
1.32330347922 0.0 0.0
1.31605473546 0.0 0.0
1.30872991719 0.0 0.0
1.30072612077 0.0 0.0
1.29285775523 0.0 0.0
1.28409184759 0.0 0.0
1.27601173072 0.0 0.0
1.26747090843 0.0 0.0
1.25989292986 0.0 0.0
1.25097126272 0.0 0.0
1.24206596667 0.0 0.0
1.23357487325 0.0 0.0
1.22413715752 0.0 0.0
1.21457911225 0.0 0.0
1.20494278984 0.0 0.0
1.19473882493 0.0 0.0
1.18431700487 0.0 0.0
1.17335225989 0.0 0.0
1.16202434838 0.0 0.0
1.15017646409 0.0 0.0
1.13713255075 0.0 0.0
1.1236307287 0.0 0.0
1.10876616199 0.0 0.0
1.09156191207 0.0 0.0
1.07308539491 0.0 0.0
1.05252863675 0.0 0.0
1.03076894663 0.0 0.0
1.01107439159 0.0 0.0
0.998567541975 0.0 0.0
1.0 0.0 0.0
1.0 0.0 0.0
1.0 0.0 0.0
1.0 0.0 0.0
1.0 0.0 0.0
1.0 0.0 0.0
1.0 0.0 0.0
1.0 0.0 0.0
1.0 0.0 0.0
1.16912157618 -0.071411130381 0.0
1.22463925606 -0.0462905909866 0.0
1.22704095341 -0.0311691996661 0.0
1.08722181253 0.000131702036226 0.0
1.12355825416 3.43666457918e-05 0.0
1.12246611536 -1.85968729375e-05 0.0
1.11956848984 -8.61998359716e-05 0.0
1.11807362277 -0.00048939624251 0.0
1.11928005256 -0.00101787659312 0.0
1.1207119705 -0.00134415781226 0.0
1.12229158422 -0.00152625883141 0.0
1.12402361291 -0.00166722840724 0.0
1.12599737447 -0.00183285007692 0.0
1.12826258096 -0.00204691636678 0.0
1.13086772022 -0.00228677399934 0.0
1.08567922796 -0.00231982923054 0.0
1.0893728959 -0.00253716344865 0.0
1.09353347588 -0.002822046294 0.0
1.09807145776 -0.00315018340194 0.0
1.15502490702 -0.00446669135969 0.0
1.21869403352 -0.0228704168753 0.0
1.12537448724 -0.00449322286589 0.0
1.10298105629 -0.00338377686094 0.0
1.2046957089 -0.0175509150883 0.0
1.1328160025 -0.00504613639991 0.0
1.14544829742 -0.0040127621244 0.0
1.19081698644 -0.0138393107598 0.0
1.14126786036 -0.00548499990657 0.0
1.17798119997 -0.0113537005977 0.0
1.17960587855 -0.00681780097493 0.0
1.19096698318 -0.010623480778 0.0
1.15220877234 -0.00442483971211 0.0
1.16753156582 -0.0098823234842 0.0
0.8836898649 -0.000523723364533 0.0
1.21271370753 -0.147335307995 0.0
1.29274978606 -0.0108464484732 0.0
1.28109275171 -0.012685638553 0.0
1.31058680565 -0.0073255532543 0.0
1.26710662142 -0.0149509409778 0.0
1.31119180158 -0.00654255899376 0.0
1.21850271673 -0.0213754281491 0.0
1.24714050147 -0.0178018189967 0.0
1.31336125383 -0.00603187362381 0.0
1.31485280163 -0.00545147476434 0.0
1.31760992018 -0.00475740120775 0.0
1.31843284754 -0.00437828970775 0.0
1.31890114452 -0.00409110843068 0.0
1.3191917476 -0.00369875827626 0.0
1.31928985346 -0.00335377683423 0.0
1.31013288205 -0.00305710374171 0.0
1.30992391571 -0.00266284865103 0.0
1.30981337226 -0.00237041599298 0.0
1.20402989609 -0.0511170949643 0.0
1.30964611209 -0.00213354145839 0.0
1.30957403233 -0.00194180571853 0.0
1.30955172306 -0.00178650860684 0.0
1.17783264597 -0.0261819006742 0.0
1.30936073324 -0.00159582874827 0.0
1.1328456862 -0.0280140647575 0.0
1.130276672 -0.0341103081996 0.0
1.3069990311 -0.00111355635854 0.0
1.30645387127 -0.000523777102673 0.0
0.840561351427 -8.02470553977e-05 0.0
1.30605886806 -5.26317300223e-05 0.0
0.840179508361 -0.000318261322205 0.0
0.96683060653 -0.00705234101106 0.0
0.986697412489 -0.00839775618055 0.0
0.925989758663 -0.0031917468701 0.0
1.08064729067 -0.0191444100873 0.0
1.01063393475 -0.0107156332713 0.0
0.913851648474 -0.00345610745844 0.0
1.04102286447 -0.0142005154209 0.0
0.903633049582 -0.00318332941754 0.0
0.89428767535 -0.00273388679063 0.0
0.886406145107 -0.00221671549799 0.0
0.879871484492 -0.00239516645895 0.0
0.873813836566 -0.00213141130611 0.0
0.86828312629 -0.00189786069106 0.0
0.863326182109 -0.00168962783237 0.0
0.858967271541 -0.00141893103503 0.0
0.8550763091 -0.00131893083897 0.0
0.851679300979 -0.00118099225771 0.0
0.848607726206 -0.00107534090003 0.0
0.845823046029 -0.000991988033893 0.0
0.84331288998 -0.000902006518145 0.0
1.31029232544 -9.32517977575e-05 0.0
0.84117909774 -0.000752604919208 0.0
0.839656762401 -0.000474527874685 0.0
0.839036335885 -0.000126206022581 0.0
0.839018094803 2.38338466108e-05 0.0
1.32688448465 0.000192722857122 0.0
1.03689297681 -0.0376611797327 0.0
1.33198587742 0.00049499709362 0.0
1.31750152461 -0.00507260400108 0.0
1.31237422892 -0.0084672005293 0.0
1.30387262897 -0.00976229538706 0.0
1.32885619018 -0.00537667048342 0.0
0.831186322028 -0.00326589170673 0.0
0.871087915873 -0.00222330518347 0.0
0.887201833576 -0.00340097425162 0.0
0.896787553358 -0.00774919503401 0.0
1.17028352044 -0.0738500395362 0.0
1.02804041461 -0.027111681925 0.0
1.33398911792 -6.87751746209e-05 0.0
1.38320471418 -0.00293667591332 0.0
1.38023556974 -0.00325841248411 0.0
1.13890432179 -0.0213486502835 0.0
1.37263787774 -0.00286259922228 0.0
1.07579564666 -0.028687802478 0.0
1.37673537959 -0.00355454319469 0.0
1.3743126945 -0.00254621446748 0.0
1.37574758587 -0.00227221351741 0.0
1.36809757569 -0.00395374560258 0.0
0.939735922995 -0.0153935310296 0.0
1.37710472222 -0.00204581846786 0.0
1.36426614255 -0.00429149016848 0.0
1.37841420676 -0.00186390458724 0.0
1.37960829614 -0.00172059165867 0.0
1.18517589383 -0.017156564674 0.0
1.38037446998 -0.00146748190662 0.0
1.37066555387 -0.000852867597861 0.0
1.41681829906 -0.00027047028949 0.0
0.616134812462 0.000190000635957 0.0
1.353760129 -0.0048035909641 0.0
1.41345983727 -8.70871334801e-05 0.0
0.631473347379 0.000228391056069 0.0
0.590060943541 0.000436609549085 0.0
1.41345542019 2.65872671547e-05 0.0
0.613620978959 0.00028832000356 0.0
1.34951332952 -0.0051240472679 0.0
1.22138578903 -0.0146391263773 0.0
0.613471109581 0.000152134632403 0.0
0.614112550621 1.82650651883e-05 0.0
0.615456476464 -6.35046135968e-05 0.0
0.617283608159 -0.000105291695606 0.0
1.34296464223 -0.00555537163506 0.0
1.25090439192 -0.0127060727909 0.0
0.619402276494 -0.000131065524701 0.0
0.62175403852 -0.000170538629368 0.0
0.62437861432 -0.000240693749781 0.0
0.627248784624 -0.000299596246447 0.0
0.631234465928 -0.000514448649063 0.0
1.33469194678 -0.00613390819192 0.0
1.27416110321 -0.0110271307023 0.0
0.635062647138 -0.000584000911868 0.0
0.639450341741 -0.000653911272935 0.0
0.509610671281 -0.000549402108608 0.0
0.644399882353 -0.000772732588482 0.0
0.828813065536 -0.0080039228987 0.0
0.668607799357 -0.000923345836949 0.0
0.79069451498 -0.00568879711492 0.0
0.676735607728 -0.00112548409223 0.0
0.649635315897 -0.000818372273867 0.0
0.762440192341 -0.00424668439063 0.0
0.685210388128 -0.000969658914613 0.0
0.740446684528 -0.00327523787133 0.0
0.531919023601 0.00024967423866 0.0
0.617789163707 -0.00226877055387 0.0
0.552282202794 -0.000262166671401 0.0
1.32418643553 -0.0062525405133 0.0
1.29292612582 -0.00971201043412 0.0
1.3060247758 -0.00894259122417 0.0
1.32967449503 -0.00702377477622 0.0
1.3576731866 -0.00464408030893 0.0
1.36581357753 -0.00445653912151 0.0
0.637655278604 -0.002730118047 0.0
0.850378227341 -0.0076520656138 0.0
1.41575027259 -8.87415777822e-06 0.0
1.04294795607 -0.0615922584178 0.0
1.11940762676 0.000222028937466 0.0
1.18562107867 -2.47272103406e-05 0.0
1.04314892714 -0.0188643138742 0.0
0.512177578558 0.000130121850538 0.0
1.1093235133 -0.0717125802603 0.0
1.00555059438 -0.0517882270601 0.0
0.561148322224 -0.00105544591209 0.0
1.42628069781 -0.00256399823105 0.0
1.42200223278 -0.00290487644225 0.0
1.42924331639 -0.00216738324291 0.0
1.41632200958 -0.00315300169927 0.0
1.27842292703 -0.300615983257 0.0
1.40950967961 -0.00344811039443 0.0
1.43311471683 -0.00192147015609 0.0
1.4026442372 -0.00362137636037 0.0
1.43654527055 -0.0017106629332 0.0
1.43967569666 -0.00153465176344 0.0
1.19673981269 -0.0102207704889 0.0
1.37266258625 -0.00433055692398 0.0
1.109160104 -0.0155578610834 0.0
1.36269650351 -0.00466623671036 0.0
1.23060234976 -0.00903338540621 0.0
1.44256362181 -0.00140060716857 0.0
1.35158887724 -0.00496050084347 0.0
1.2592767165 -0.00796992237854 0.0
1.15709685084 -0.0119482142288 0.0
1.28358225517 -0.00713000928716 0.0
1.44519698889 -0.00132286585281 0.0
1.44610013744 -0.00110592021433 0.0
1.44613989902 -0.000551029990953 0.0
1.44338220609 0.000242587893071 0.0
1.44495759787 0.000259569559502 0.0
1.44629023971 0.000198599187593 0.0
1.15654125152 -0.00436966986481 0.0
0.739035564433 -0.00915953308372 0.0
0.791541065776 -0.01492433663 0.0
0.849059250232 -0.0218293093085 0.0
0.708921225105 -0.00815241031753 0.0
0.480865809103 -0.000345929443391 0.0
0.480867262271 -0.000393134608567 0.0
0.481475907718 -0.000497057911321 0.0
1.20314496128 -0.00837947956458 0.0
0.48269762088 -0.000580756181632 0.0
0.4843581082 -0.000614293302218 0.0
0.486280972105 -0.000639453358618 0.0
1.12326564416 0.000196819140838 0.0
1.20777737615 -0.0108033327284 0.0
0.488390795333 -0.000671006303872 0.0
1.1234368161 0.000206529848196 0.0
0.490720835336 -0.000715778279303 0.0
0.493337166243 -0.000808730107677 0.0
0.496117809964 -0.000448997669209 0.0
0.499394419263 -0.000532405470826 0.0
1.11058689643 8.45160109881e-05 0.0
0.503168524627 -0.000587452069134 0.0
1.11077163859 0.000176397941985 0.0
0.488955169181 -0.000103355767374 0.0
0.507403003628 -0.000663439183918 0.0
1.11149720099 -0.000419635613753 0.0
0.490987225097 -0.000344884813605 0.0
1.11331425268 -0.000826083246136 0.0
0.4876317604 -0.000693675014762 0.0
0.512134345321 -0.000794845882016 0.0
1.11486974984 -0.00102989487255 0.0
0.48816930768 -0.000488665720475 0.0
0.502708498034 -0.000374002383914 0.0
1.11653294288 -0.00115918168895 0.0
0.680744765749 -0.00751432655686 0.0
1.11839685345 -0.00129957749447 0.0
1.12055493813 -0.00147801720694 0.0
0.530351158016 -0.000696646987991 0.0
1.12294354862 -0.00169446583012 0.0
1.1229901822 -0.002080298465 0.0
1.22804261537 -0.026175330475 0.0
0.645099121225 -0.00503306988607 0.0
0.537173289338 -0.00110804274963 0.0
1.1240438667 -0.00220019889842 0.0
1.12773972781 -0.00249786375155 0.0
0.619326988484 -0.00387976587619 0.0
0.544541761824 -0.00116520708353 0.0
1.13181141337 -0.00283221390477 0.0
0.599786546587 -0.00312739085693 0.0
0.527515324552 -0.000626331233997 0.0
1.13617088617 -0.00312168366235 0.0
1.13861368213 -0.00331042613724 0.0
0.570305268081 -0.00224412729197 0.0
1.1500626241 -0.00478788821344 0.0
1.15659014154 -0.00417741928165 0.0
1.16308534533 -0.00464744969876 0.0
1.22221495087 -0.0204154718567 0.0
1.17026238656 -0.00510054694698 0.0
1.21374060158 -0.0163056742097 0.0
1.17500361137 -0.00570770836141 0.0
1.20478637674 -0.0134098573538 0.0
1.19313965023 -0.0113579796137 0.0
1.22284258776 -0.0379643405638 0.0
1.20249272765 -0.0486184422658 0.0
1.18727256775 -0.0563375390753 0.0
1.19108092764 -0.00984309707664 0.0
1.22559181812 -0.0342264899041 0.0
1.22629194659 -0.0268372977676 0.0
1.20045322886 -0.0120204823023 0.0
1.16662013998 -0.00704474526184 0.0
1.21074334045 -0.0151929558006 0.0
1.15822715597 -0.00643841442546 0.0
1.22034001271 -0.019685013768 0.0
1.15145373128 -0.00589752673799 0.0
0.595240640128 -0.00212104471846 0.0
1.15155434584 -0.00504077164387 0.0
0.614748362222 -0.00297519846912 0.0
0.553852614337 -0.00133348293586 0.0
0.683674069409 -0.00698150384978 0.0
1.13222875421 -0.00459520323643 0.0
0.636517057475 -0.0038505350158 0.0
0.550952771376 -0.00158746817937 0.0
1.12805579877 -0.00439747924537 0.0
1.12382721638 -0.0040152708964 0.0
0.665596405034 -0.00510620901953 0.0
0.543823725057 -0.00146826408844 0.0
1.11995054474 -0.00367440030443 0.0
1.44228187317 -0.000280397602696 0.0
1.11641066295 -0.00334979035245 0.0
1.1265512019 -0.00278070875398 0.0
0.514478071114 -0.000324981045407 0.0
1.12449078502 -0.00252504383374 0.0
1.12229910181 -0.00229196032049 0.0
1.12035301065 -0.00211722353588 0.0
1.11866520276 -0.00197599237333 0.0
1.11715344193 -0.00182815259447 0.0
1.1157440758 -0.00158469845034 0.0
1.11407220614 -0.00119692884582 0.0
1.11554249299 -0.00013451275313 0.0
1.11397849549 -0.000298692932294 0.0
1.11452045687 -0.000284487707131 0.0
1.11158538798 -0.00039086593015 0.0
1.38181998546 -0.00403253304647 0.0
1.44545143621 -0.000622875361932 0.0
0.52369004543 -0.0012837576326 0.0
0.514166491184 -0.00130133938772 0.0
0.509578475864 -0.00115167735071 0.0
0.505500064994 -0.00105228049195 0.0
0.501873732352 -0.000990258389875 0.0
1.44540974504 -0.00106043129666 0.0
0.498818866661 -0.00058735724282 0.0
0.496061094436 -0.000641806030293 0.0
0.493530071705 -0.000578493629039 0.0
0.491279397695 -0.000539668653568 0.0
0.489235534669 -0.000512101331102 0.0
0.48739228319 -0.000486030793587 0.0
1.44503954553 -0.00145971943135 0.0
0.485866327812 -0.00044734904706 0.0
0.484877407518 -0.000361660765507 0.0
0.484529661515 -0.000269223248368 0.0
0.48787609216 0.000119558850949 0.0
1.44250741037 -0.00154742988401 0.0
1.43965941875 -0.00166258084697 0.0
1.31161920535 -0.00722633404531 0.0
1.43660013503 -0.00182877887722 0.0
1.33272399457 -0.0051381706676 0.0
0.885703399296 1.92511607743e-05 0.0
1.43327549103 -0.00203060189968 0.0
1.00664434664 -0.0136597361306 0.0
1.08539850002 -0.0185611729525 0.0
1.44228538634 -0.000227249814779 0.0
1.42957977561 -0.00227354054863 0.0
1.2204754641 -0.0909883838331 0.0
1.42564022143 -0.00249072576209 0.0
1.43603426131 -0.00209865232099 0.0
1.38796958172 -0.00353590309553 0.0
1.42948691981 -0.00229955212915 0.0
1.42215398254 -0.00250939405995 0.0
1.44019951281 0.000195567913157 0.0
1.41368324261 -0.0026838472173 0.0
1.40520218477 -0.00281700358776 0.0
1.13568592655 -0.0110122640176 0.0
1.17750303629 -0.00919447333915 0.0
1.37980048079 -0.00321161409296 0.0
1.34447941715 -0.0039116025837 0.0
1.29260904938 -0.00582125111025 0.0
1.36922492868 -0.00349343430194 0.0
1.21305834194 -0.0080893703432 0.0
1.29368555863 -0.00152392270251 0.0