# vtk DataFile Version 2.0
2D Simulation Python
ASCII
DATASET UNSTRUCTURED_GRID
FIELD FieldData 1
NODES 1 2 int
2790 1289

POINTS 2790 double
0.0 1.0 0.0
1.725 1.0 0.0
8.275 1.0 0.0
20.0 1.0 0.0
20.0 0.0 0.0
0.0 0.0 0.0
0.1916666666663293 1.0 0.0
0.3833333333324708 1.0 0.0
0.574999999998553 1.0 0.0
0.7666666666645966 1.0 0.0
0.9583333333312576 1.0 0.0
1.149999999998384 1.0 0.0
1.341666666665662 1.0 0.0
1.533333333332819 1.0 0.0
0.0958333333331406 1.0 0.0
0.2874999999994247 1.0 0.0
0.4791666666655395 1.0 0.0
0.6708333333315728 1.0 0.0
0.8624999999976626 1.0 0.0
1.054166666664886 1.0 0.0
1.245833333332057 1.0 0.0
1.437499999999343 1.0 0.0
1.629166666666455 1.0 0.0
1.92348484848444 1.0 0.0
2.121969696968978 1.0 0.0
2.320454545453434 1.0 0.0
2.518939393937826 1.0 0.0
2.717424242422235 1.0 0.0
2.915909090906411 1.0 0.0
3.1143939393908 1.0 0.0
3.312878787875129 1.0 0.0
3.511363636359531 1.0 0.0
3.709848484843827 1.0 0.0
3.90833333332816 1.0 0.0
4.106818181812215 1.0 0.0
4.305303030296804 1.0 0.0
4.503787878781365 1.0 0.0
4.702272727265711 1.0 0.0
4.900757575750005 1.0 0.0
5.099242424235156 1.0 0.0
5.297727272720327 1.0 0.0
5.496212121205663 1.0 0.0
5.694696969690998 1.0 0.0
5.89318181817668 1.0 0.0
6.09166666666213 1.0 0.0
6.290151515147423 1.0 0.0
6.488636363633031 1.0 0.0
6.687121212118713 1.0 0.0
6.885606060604342 1.0 0.0
7.084090909089381 1.0 0.0
7.282575757574369 1.0 0.0
7.481060606059355 1.0 0.0
7.679545454544343 1.0 0.0
7.878030303029329 1.0 0.0
8.076515151514705 1.0 0.0
1.824242424242199 1.0 0.0
2.022727272726695 1.0 0.0
2.221212121211181 1.0 0.0
2.41969696969563 1.0 0.0
2.618181818180092 1.0 0.0
2.816666666664316 1.0 0.0
3.015151515148624 1.0 0.0
3.213636363633039 1.0 0.0
3.412121212117267 1.0 0.0
3.610606060601583 1.0 0.0
3.809090909085975 1.0 0.0
4.007575757570153 1.0 0.0
4.206060606054539 1.0 0.0
4.404545454539001 1.0 0.0
4.603030303023853 1.0 0.0
4.801515151507715 1.0 0.0
4.999999999992074 1.0 0.0
5.198484848477777 1.0 0.0
5.396969696963081 1.0 0.0
5.595454545448261 1.0 0.0
5.793939393933949 1.0 0.0
5.992424242419331 1.0 0.0
6.190909090904785 1.0 0.0
6.389393939390224 1.0 0.0
6.587878787875795 1.0 0.0
6.786363636361617 1.0 0.0
6.984848484846598 1.0 0.0
7.183333333331875 1.0 0.0
7.381818181816625 1.0 0.0
7.580303030301849 1.0 0.0
7.778787878786936 1.0 0.0
7.977272727272114 1.0 0.0
8.175757575757618 1.0 0.0
8.473728813558951 1.0 0.0
8.672457627118133 1.0 0.0
8.871186440676855 1.0 0.0
9.069915254236154 1.0 0.0
9.268644067794812 1.0 0.0
9.467372881354057 1.0 0.0
9.666101694912944 1.0 0.0
9.864830508471961 1.0 0.0
10.06355932203108 1.0 0.0
10.26228813558986 1.0 0.0
10.46101694914916 1.0 0.0
10.65974576270777 1.0 0.0
10.85847457626706 1.0 0.0
11.05720338982589 1.0 0.0
11.25593220338497 1.0 0.0
11.45466101694402 1.0 0.0
11.65338983050287 1.0 0.0
11.85211864406215 1.0 0.0
12.05084745762035 1.0 0.0
12.24957627117938 1.0 0.0
12.44830508473794 1.0 0.0
12.64703389829659 1.0 0.0
12.84576271185557 1.0 0.0
13.04449152541379 1.0 0.0
13.24322033897301 1.0 0.0
13.44194915253121 1.0 0.0
13.6406779660903 1.0 0.0
13.83940677964874 1.0 0.0
14.03813559320751 1.0 0.0
14.23686440676681 1.0 0.0
14.43559322032663 1.0 0.0
14.63432203388679 1.0 0.0
14.8330508474463 1.0 0.0
15.0317796610067 1.0 0.0
15.23050847456608 1.0 0.0
15.42923728812645 1.0 0.0
15.62796610168606 1.0 0.0
15.82669491524602 1.0 0.0
16.02542372880584 1.0 0.0
16.22415254236431 1.0 0.0
16.42288135592496 1.0 0.0
16.62161016948498 1.0 0.0
16.82033898304518 1.0 0.0
17.01906779660567 1.0 0.0
17.2177966101654 1.0 0.0
17.41652542372565 1.0 0.0
17.61525423728425 1.0 0.0
17.81398305084494 1.0 0.0
18.01271186440355 1.0 0.0
18.21144067796387 1.0 0.0
18.41016949152309 1.0 0.0
18.6088983050827 1.0 0.0
18.80762711864282 1.0 0.0
19.00635593220153 1.0 0.0
19.20508474576211 1.0 0.0
19.40381355932072 1.0 0.0
19.60254237288117 1.0 0.0
19.80127118644013 1.0 0.0
8.374364406779554 1.0 0.0
8.573093220338519 1.0 0.0
8.771822033897509 1.0 0.0
8.970550847456504 1.0 0.0
9.169279661015429 1.0 0.0
9.368008474574502 1.0 0.0
9.566737288133496 1.0 0.0
9.765466101692677 1.0 0.0
9.964194915251602 1.0 0.0
10.16292372881015 1.0 0.0
10.36165254236967 1.0 0.0
10.56038135592849 1.0 0.0
10.75911016948728 1.0 0.0
10.95783898304648 1.0 0.0
11.15656779660554 1.0 0.0
11.35529661016447 1.0 0.0
11.55402542372345 1.0 0.0
11.75275423728253 1.0 0.0
11.95148305084111 1.0 0.0
12.15021186439983 1.0 0.0
12.34894067795883 1.0 0.0
12.54766949151722 1.0 0.0
12.74639830507616 1.0 0.0
12.94512711863486 1.0 0.0
13.14385593219357 1.0 0.0
13.34258474575207 1.0 0.0
13.54131355931069 1.0 0.0
13.7400423728695 1.0 0.0
13.93877118642822 1.0 0.0
14.13749999998697 1.0 0.0
14.33622881354686 1.0 0.0
14.53495762710678 1.0 0.0
14.73368644066656 1.0 0.0
14.93241525422655 1.0 0.0
15.13114406778625 1.0 0.0
15.32987288134641 1.0 0.0
15.52860169490635 1.0 0.0
15.7273305084661 1.0 0.0
15.9260593220261 1.0 0.0
16.12478813558534 1.0 0.0
16.32351694914468 1.0 0.0
16.52224576270527 1.0 0.0
16.72097457626511 1.0 0.0
16.91970338982543 1.0 0.0
17.11843220338561 1.0 0.0
17.31716101694539 1.0 0.0
17.51588983050497 1.0 0.0
17.71461864406449 1.0 0.0
17.91334745762401 1.0 0.0
18.11207627118383 1.0 0.0
18.31080508474307 1.0 0.0
18.50953389830311 1.0 0.0
18.70826271186271 1.0 0.0
18.90699152542239 1.0 0.0
19.10572033898203 1.0 0.0
19.30444915254171 1.0 0.0
19.50317796610107 1.0 0.0
19.70190677966065 1.0 0.0
19.90063559322003 1.0 0.0
20.0 0.7999999999999998 0.0
20.0 0.6000000000013869 0.0
20.0 0.4000000000016644 0.0
20.0 0.2000000000008322 0.0
20.0 0.9000000000000369 0.0
20.0 0.7000000000005904 0.0
20.0 0.5000000000017577 0.0
20.0 0.3000000000012483 0.0
20.0 0.1000000000004161 0.0
19.8 0.0 0.0
19.6 0.0 0.0
19.4 0.0 0.0
19.2 0.0 0.0
19.0 0.0 0.0
18.8 0.0 0.0
18.6 0.0 0.0
18.4 0.0 0.0
18.2 0.0 0.0
18.0 0.0 0.0
17.8 0.0 0.0
17.59999999999999 0.0 0.0
17.4 0.0 0.0
17.2 0.0 0.0
16.99999999999999 0.0 0.0
16.79999999999999 0.0 0.0
16.59999999999999 0.0 0.0
16.4 0.0 0.0
16.2 0.0 0.0
15.99999999999999 0.0 0.0
15.79999999999999 0.0 0.0
15.59999999999999 0.0 0.0
15.4 0.0 0.0
15.2 0.0 0.0
15.0 0.0 0.0
14.79999999999999 0.0 0.0
14.59999999999999 0.0 0.0
14.4 0.0 0.0
14.2 0.0 0.0
13.99999999999999 0.0 0.0
13.8 0.0 0.0
13.59999999999999 0.0 0.0
13.4 0.0 0.0
13.2 0.0 0.0
13.0 0.0 0.0
12.79999999999999 0.0 0.0
12.6 0.0 0.0
12.4 0.0 0.0
12.2 0.0 0.0
11.99999999999999 0.0 0.0
11.8 0.0 0.0
11.6 0.0 0.0
11.4 0.0 0.0
11.2 0.0 0.0
11.0 0.0 0.0
10.8 0.0 0.0
10.6 0.0 0.0
10.4 0.0 0.0
10.2 0.0 0.0
9.999999999999998 0.0 0.0
9.799999999999995 0.0 0.0
9.599999999999998 0.0 0.0
9.399999999999997 0.0 0.0
9.199999999999998 0.0 0.0
8.999999999999996 0.0 0.0
8.799999999999997 0.0 0.0
8.599999999999996 0.0 0.0
8.399999999999999 0.0 0.0
8.199999999999996 0.0 0.0
7.999999999999998 0.0 0.0
7.799999999999997 0.0 0.0
7.599999999999998 0.0 0.0
7.399999999999999 0.0 0.0
7.199999999999998 0.0 0.0
6.999999999999995 0.0 0.0
6.799999999999995 0.0 0.0
6.599999999999998 0.0 0.0
6.399999999999997 0.0 0.0
6.199999999999996 0.0 0.0
5.999999999999998 0.0 0.0
5.799999999999999 0.0 0.0
5.599999999999996 0.0 0.0
5.399999999999995 0.0 0.0
5.199999999999996 0.0 0.0
4.999999999999998 0.0 0.0
4.799999999999997 0.0 0.0
4.599999999999998 0.0 0.0
4.399999999999999 0.0 0.0
4.199999999999999 0.0 0.0
3.999999999999996 0.0 0.0
3.799999999999997 0.0 0.0
3.599999999999998 0.0 0.0
3.399999999999999 0.0 0.0
3.199999999999999 0.0 0.0
3.0 0.0 0.0
2.800000000000001 0.0 0.0
2.599999999999998 0.0 0.0
2.399999999999999 0.0 0.0
2.199999999999996 0.0 0.0
1.999999999999996 0.0 0.0
1.800000000000001 0.0 0.0
1.599999999999998 0.0 0.0
1.399999999999999 0.0 0.0
1.200000000000003 0.0 0.0
1.0 0.0 0.0
0.7999999999999972 0.0 0.0
0.5999999999999979 0.0 0.0
0.3999999999999986 0.0 0.0
0.1999999999999993 0.0 0.0
19.90000000000022 0.0 0.0
19.69999999999997 0.0 0.0
19.49999999999987 0.0 0.0
19.30000000000005 0.0 0.0
19.09999999999999 0.0 0.0
18.89999999999987 0.0 0.0
18.7 0.0 0.0
18.49999999999999 0.0 0.0
18.30000000000001 0.0 0.0
18.09999999999987 0.0 0.0
17.90000000000013 0.0 0.0
17.7 0.0 0.0
17.49999999999987 0.0 0.0
17.30000000000025 0.0 0.0
17.10000000000001 0.0 0.0
16.90000000000005 0.0 0.0
16.70000000000003 0.0 0.0
16.50000000000006 0.0 0.0
16.29999999999997 0.0 0.0
16.09999999999999 0.0 0.0
15.89999999999987 0.0 0.0
15.69999999999999 0.0 0.0
15.49999999999999 0.0 0.0
15.3 0.0 0.0
15.10000000000003 0.0 0.0
14.90000000000005 0.0 0.0
14.69999999999992 0.0 0.0
14.49999999999996 0.0 0.0
14.29999999999999 0.0 0.0
14.10000000000008 0.0 0.0
13.89999999999988 0.0 0.0
13.70000000000003 0.0 0.0
13.50000000000004 0.0 0.0
13.29999999999992 0.0 0.0
13.09999999999995 0.0 0.0
12.90000000000016 0.0 0.0
12.7 0.0 0.0
12.49999999999986 0.0 0.0
12.30000000000003 0.0 0.0
12.10000000000016 0.0 0.0
11.90000000000005 0.0 0.0
11.69999999999994 0.0 0.0
11.49999999999993 0.0 0.0
11.30000000000005 0.0 0.0
11.0999999999999 0.0 0.0
10.90000000000004 0.0 0.0
10.69999999999995 0.0 0.0
10.50000000000012 0.0 0.0
10.29999999999999 0.0 0.0
10.09999999999993 0.0 0.0
9.900000000000077 0.0 0.0
9.699999999999969 0.0 0.0
9.499999999999982 0.0 0.0
9.299999999999969 0.0 0.0
9.100000000000108 0.0 0.0
8.899999999999972 0.0 0.0
8.699999999999958 0.0 0.0
8.499999999999998 0.0 0.0
8.30000000000003 0.0 0.0
8.099999999999977 0.0 0.0
7.899999999999974 0.0 0.0
7.700000000000166 0.0 0.0
7.499999999999854 0.0 0.0
7.299999999999997 0.0 0.0
7.100000000000019 0.0 0.0
6.900000000000002 0.0 0.0
6.699999999999974 0.0 0.0
6.500000000000037 0.0 0.0
6.299999999999981 0.0 0.0
6.100000000000014 0.0 0.0
5.899999999999949 0.0 0.0
5.700000000000049 0.0 0.0
5.499999999999956 0.0 0.0
5.300000000000118 0.0 0.0
5.100000000000005 0.0 0.0
4.900000000000109 0.0 0.0
4.699999999999982 0.0 0.0
4.499999999999936 0.0 0.0
4.300000000000137 0.0 0.0
4.100000000000012 0.0 0.0
3.899999999999888 0.0 0.0
3.69999999999974 0.0 0.0
3.500000000000046 0.0 0.0
3.299999999999965 0.0 0.0
3.099999999999817 0.0 0.0
2.900000000000066 0.0 0.0
2.699999999999793 0.0 0.0
2.500000000000064 0.0 0.0
2.299999999999823 0.0 0.0
[...]
POINT_DATA 2790
VECTORS vector double
1.0 0.0 0.0
0.0 0.0 0.0
0.0 0.0 0.0
0.0 0.0 0.0
1.59884865113 0.0 0.0
1.0 0.0 0.0
0.0 0.0 0.0
0.0 0.0 0.0
0.0 0.0 0.0
0.0 0.0 0.0
0.0 0.0 0.0
0.0 0.0 0.0
0.0 0.0 0.0
0.0 0.0 0.0
0.0 0.0 0.0
0.0 0.0 0.0
0.0 0.0 0.0
0.0 0.0 0.0
0.0 0.0 0.0
0.0 0.0 0.0
0.0 0.0 0.0
0.0 0.0 0.0
0.0 0.0 0.0
0.0 0.0 0.0
0.0 0.0 0.0
0.0 0.0 0.0
0.0 0.0 0.0
0.0 0.0 0.0
0.0 0.0 0.0
0.0 0.0 0.0
0.0 0.0 0.0
0.0 0.0 0.0
0.0 0.0 0.0
0.0 0.0 0.0
0.0 0.0 0.0
0.0 0.0 0.0
0.0 0.0 0.0
0.0 0.0 0.0
0.0 0.0 0.0
0.0 0.0 0.0
0.0 0.0 0.0
0.0 0.0 0.0
0.0 0.0 0.0
0.0 0.0 0.0
0.0 0.0 0.0
0.0 0.0 0.0
0.0 0.0 0.0
0.0 0.0 0.0
0.0 0.0 0.0
0.0 0.0 0.0
0.0 0.0 0.0
0.0 0.0 0.0
0.0 0.0 0.0
0.0 0.0 0.0
0.0 0.0 0.0
0.0 0.0 0.0
0.0 0.0 0.0
0.0 0.0 0.0
0.0 0.0 0.0
0.0 0.0 0.0
0.0 0.0 0.0
0.0 0.0 0.0
0.0 0.0 0.0
0.0 0.0 0.0
0.0 0.0 0.0
0.0 0.0 0.0
0.0 0.0 0.0
0.0 0.0 0.0
0.0 0.0 0.0
0.0 0.0 0.0
0.0 0.0 0.0
0.0 0.0 0.0
0.0 0.0 0.0
0.0 0.0 0.0
0.0 0.0 0.0
0.0 0.0 0.0
0.0 0.0 0.0
0.0 0.0 0.0
0.0 0.0 0.0
0.0 0.0 0.0
0.0 0.0 0.0
0.0 0.0 0.0
0.0 0.0 0.0
0.0 0.0 0.0
0.0 0.0 0.0
0.0 0.0 0.0
0.0 0.0 0.0
0.0 0.0 0.0
0.0 0.0 0.0
0.0 0.0 0.0
0.0 0.0 0.0
0.0 0.0 0.0
0.0 0.0 0.0
0.0 0.0 0.0
0.0 0.0 0.0
0.0 0.0 0.0
0.0 0.0 0.0
0.0 0.0 0.0
0.0 0.0 0.0
0.0 0.0 0.0
0.0 0.0 0.0
0.0 0.0 0.0
0.0 0.0 0.0
0.0 0.0 0.0
0.0 0.0 0.0
0.0 0.0 0.0
0.0 0.0 0.0
0.0 0.0 0.0
0.0 0.0 0.0
0.0 0.0 0.0
0.0 0.0 0.0
0.0 0.0 0.0
0.0 0.0 0.0
0.0 0.0 0.0
0.0 0.0 0.0
0.0 0.0 0.0
0.0 0.0 0.0
0.0 0.0 0.0
0.0 0.0 0.0
0.0 0.0 0.0
0.0 0.0 0.0
0.0 0.0 0.0
0.0 0.0 0.0
0.0 0.0 0.0
0.0 0.0 0.0
0.0 0.0 0.0
0.0 0.0 0.0
0.0 0.0 0.0
0.0 0.0 0.0
0.0 0.0 0.0
0.0 0.0 0.0
0.0 0.0 0.0
0.0 0.0 0.0
0.0 0.0 0.0
0.0 0.0 0.0
0.0 0.0 0.0
0.0 0.0 0.0
0.0 0.0 0.0
0.0 0.0 0.0
0.0 0.0 0.0
0.0 0.0 0.0
0.0 0.0 0.0
0.0 0.0 0.0
0.0 0.0 0.0
0.0 0.0 0.0
0.0 0.0 0.0
0.0 0.0 0.0
0.0 0.0 0.0
0.0 0.0 0.0
0.0 0.0 0.0
0.0 0.0 0.0
0.0 0.0 0.0
0.0 0.0 0.0
0.0 0.0 0.0
0.0 0.0 0.0
0.0 0.0 0.0
0.0 0.0 0.0
0.0 0.0 0.0
0.0 0.0 0.0
0.0 0.0 0.0
0.0 0.0 0.0
0.0 0.0 0.0
0.0 0.0 0.0
0.0 0.0 0.0
0.0 0.0 0.0
0.0 0.0 0.0
0.0 0.0 0.0
0.0 0.0 0.0
0.0 0.0 0.0
0.0 0.0 0.0
0.0 0.0 0.0
0.0 0.0 0.0
0.0 0.0 0.0
0.0 0.0 0.0
0.0 0.0 0.0
0.0 0.0 0.0
0.0 0.0 0.0
0.0 0.0 0.0
0.0 0.0 0.0
0.0 0.0 0.0
0.0 0.0 0.0
0.0 0.0 0.0
0.0 0.0 0.0
0.0 0.0 0.0
0.0 0.0 0.0
0.0 0.0 0.0
0.0 0.0 0.0
0.0 0.0 0.0
0.0 0.0 0.0
0.0 0.0 0.0
0.0 0.0 0.0
0.0 0.0 0.0
0.0 0.0 0.0
0.0 0.0 0.0
0.0 0.0 0.0
0.0 0.0 0.0
0.0 0.0 0.0
0.0 0.0 0.0
0.0 0.0 0.0
0.0 0.0 0.0
0.0 0.0 0.0
0.0 0.0 0.0
0.0 0.0 0.0
0.0 0.0 0.0
0.0 0.0 0.0
0.536553290924 3.19860283246e-05 0.0
0.951658131947 -2.07980204309e-05 0.0
1.24845619775 -0.000350487094545 0.0
1.45007515421 -0.00036494236681 0.0
0.273524225984 -0.000272685986487 0.0
0.749804539767 0.00105314520459 0.0
1.10499027115 -8.87985955788e-05 0.0
1.35210883292 -0.000870272908316 0.0
1.5238063042 -0.000262449793876 0.0
1.59763234111 0.0 0.0
1.59694804374 0.0 0.0
1.59618252127 0.0 0.0
1.59524360454 0.0 0.0
1.5931507605 0.0 0.0
1.59253288732 0.0 0.0
1.5911318943 0.0 0.0
1.58876739042 0.0 0.0
1.58757787603 0.0 0.0
1.58591138891 0.0 0.0
1.583414261 0.0 0.0
1.58203114314 0.0 0.0
1.58010754371 0.0 0.0
1.57739738964 0.0 0.0
1.57433954949 0.0 0.0
1.57201780935 0.0 0.0
1.57069263303 0.0 0.0
1.56745557595 0.0 0.0
1.56485303928 0.0 0.0
1.56331539923 0.0 0.0
1.55981447554 0.0 0.0
1.55695811238 0.0 0.0
1.55517314761 0.0 0.0
1.55138638922 0.0 0.0
1.54824342569 0.0 0.0
1.54620391317 0.0 0.0
1.54212279551 0.0 0.0
1.53868625492 0.0 0.0
1.53639169818 0.0 0.0
1.5320155718 0.0 0.0
1.5282890514 0.0 0.0
1.52574739522 0.0 0.0
1.52108836469 0.0 0.0
1.51708776052 0.0 0.0
1.51432866748 0.0 0.0
1.50940211836 0.0 0.0
1.50514856354 0.0 0.0
1.5021976696 0.0 0.0
1.49668816878 0.0 0.0
1.49197258346 0.0 0.0
1.48882897645 0.0 0.0
1.48358403551 0.0 0.0
1.47873049328 0.0 0.0
1.47541475753 0.0 0.0
1.46998992709 0.0 0.0
1.46494031897 0.0 0.0
1.46144380609 0.0 0.0
1.45587003381 0.0 0.0
1.45072939951 0.0 0.0
1.44696065498 0.0 0.0
1.44122609952 0.0 0.0
1.43599642731 0.0 0.0
1.43196514885 0.0 0.0
1.42887171177 0.0 0.0
1.42239377565 0.0 0.0
1.41578624202 0.0 0.0
1.41003917994 0.0 0.0
1.40522695621 0.0 0.0
1.3989872274 0.0 0.0
1.3931089256 0.0 0.0
1.38863506148 0.0 0.0
1.38213550694 0.0 0.0
1.37590737162 0.0 0.0
1.37122620363 0.0 0.0
1.36444243218 0.0 0.0
1.35796326191 0.0 0.0
1.35295152336 0.0 0.0
1.34590101044 0.0 0.0
1.3392413238 0.0 0.0
1.33366772794 0.0 0.0
1.32851515365 0.0 0.0
1.3202297858 0.0 0.0
1.31327938813 0.0 0.0
1.30560881441 0.0 0.0
1.29715622474 0.0 0.0
1.29000344972 0.0 0.0
1.28099432354 0.0 0.0
1.27215396053 0.0 0.0
1.26409588323 0.0 0.0
1.25606691018 0.0 0.0
1.24696309866 0.0 0.0
1.23825561261 0.0 0.0
1.22934646788 0.0 0.0
1.21969343414 0.0 0.0
1.21016770659 0.0 0.0
1.20019243505 0.0 0.0
1.18983097883 0.0 0.0
1.1791729811 0.0 0.0
1.16780621211 0.0 0.0
1.1563396252 0.0 0.0
1.1440364039 0.0 0.0
1.13032261692 0.0 0.0
1.11621061712 0.0 0.0
1.10049386738 0.0 0.0
1.08216250383 0.0 0.0
1.06275605769 0.0 0.0
1.04122829933 0.0 0.0
1.01890935732 0.0 0.0
1.00391183389 0.0 0.0
1.59809176931 0.0 0.0
1.59672929631 0.0 0.0
1.5972432288 0.0 0.0
1.59499844224 0.0 0.0
1.59354543919 0.0 0.0
1.59247089079 0.0 0.0
1.59251519921 0.0 0.0
1.58932904479 0.0 0.0
1.58756366049 0.0 0.0
1.58740663522 0.0 0.0
1.58402446053 0.0 0.0
1.58209662714 0.0 0.0
1.58168832291 0.0 0.0
1.57808405645 0.0 0.0
1.57590035969 0.0 0.0
1.57255773062 0.0 0.0
1.5715143794 0.0 0.0
1.56914802315 0.0 0.0
1.56546369233 0.0 0.0
1.56422470267 0.0 0.0
1.56160211857 0.0 0.0
1.55766520212 0.0 0.0
1.5561961676 0.0 0.0
1.55329161975 0.0 0.0
1.54905390163 0.0 0.0
1.54733875391 0.0 0.0
1.54414953696 0.0 0.0
1.5396005362 0.0 0.0
1.53763767938 0.0 0.0
1.53416454866 0.0 0.0
1.52930514064 0.0 0.0
1.52709867737 0.0 0.0
1.52335542932 0.0 0.0
1.51819742265 0.0 0.0
1.51577355022 0.0 0.0
1.51179937006 0.0 0.0
1.50639949327 0.0 0.0
1.5037052521 0.0 0.0
1.49937293717 0.0 0.0
1.4934629842 0.0 0.0
1.49009259895 0.0 0.0
1.48633108763 0.0 0.0
1.48028656121 0.0 0.0
1.47673650992 0.0 0.0
1.47280656998 0.0 0.0
1.46657611859 0.0 0.0
1.46284179857 0.0 0.0
1.4587476295 0.0 0.0
1.4523751177 0.0 0.0
1.44847171875 0.0 0.0
1.44417244989 0.0 0.0
1.43771491455 0.0 0.0
1.43367768654 0.0 0.0
1.42922599092 0.0 0.0
1.4247272236 0.0 0.0
1.41879729063 0.0 0.0
1.41197313746 0.0 0.0
1.40727422584 0.0 0.0
1.40211446655 0.0 0.0
1.39524806302 0.0 0.0
1.39045949445 0.0 0.0
1.38540708073 0.0 0.0
1.37804865744 0.0 0.0
1.37312046469 0.0 0.0
1.36782414977 0.0 0.0
1.36024916994 0.0 0.0
1.35500155278 0.0 0.0
1.34938210646 0.0 0.0
1.34168614903 0.0 0.0
1.33603180627 0.0 0.0
1.32993311867 0.0 0.0
1.32344197947 0.0 0.0
1.31610436737 0.0 0.0
1.30878581766 0.0 0.0
1.30081231142 0.0 0.0
1.29305987275 0.0 0.0
1.2842949546 0.0 0.0
1.27613044314 0.0 0.0
1.2675838779 0.0 0.0
1.25991830407 0.0 0.0
1.25099219098 0.0 0.0
1.24214624449 0.0 0.0
1.23359923675 0.0 0.0
1.22410282465 0.0 0.0
1.2146142699 0.0 0.0
1.20496927878 0.0 0.0
1.19473063711 0.0 0.0
1.18436869786 0.0 0.0
1.17329341413 0.0 0.0
1.16195517776 0.0 0.0
1.15023889928 0.0 0.0
1.13703422299 0.0 0.0
1.12328307792 0.0 0.0
1.10856473806 0.0 0.0
1.0912226233 0.0 0.0
1.07244957368 0.0 0.0
1.05239726533 0.0 0.0
1.02980286608 0.0 0.0
1.01084973428 0.0 0.0
0.999886523637 0.0 0.0
1.0 0.0 0.0
1.0 0.0 0.0
1.0 0.0 0.0
1.0 0.0 0.0
1.0 0.0 0.0
1.0 0.0 0.0
1.0 0.0 0.0
1.0 0.0 0.0
1.0 0.0 0.0
1.17027787352 -0.0690947811303 0.0
1.22401823224 -0.0453097368861 0.0
1.22582741241 -0.0310808082843 0.0
1.07077685618 -0.00047768831943 0.0
1.10937100226 -0.000923878053011 0.0
1.10976093931 -0.00109412751896 0.0
1.10839196724 -0.00123838026532 0.0
1.10807970947 -0.00140423020514 0.0
1.10994410581 -0.00156423821568 0.0
1.11180993374 -0.0017331411653 0.0
1.11393843607 -0.00190873213847 0.0
1.11635852659 -0.00211145644229 0.0
1.11907831953 -0.00233322875985 0.0
1.12208380002 -0.00256366336179 0.0
1.12535179708 -0.00279142434666 0.0
1.07995421226 -0.00273511000274 0.0
1.08428957739 -0.00285914583806 0.0
1.08883493337 -0.00305802354311 0.0
1.0935764076 -0.00321320482996 0.0
1.15069474815 -0.00449919197897 0.0
1.21705469866 -0.0229604030086 0.0
1.12141055447 -0.00451711797329 0.0
1.09868682408 -0.00330322698243 0.0
1.20254147051 -0.0176151443994 0.0
1.12892971142 -0.00501865769365 0.0
1.14068486131 -0.00395463467052 0.0
1.18820505668 -0.0139359243049 0.0
1.13756819572 -0.00547636873778 0.0
1.17502843272 -0.0113163688447 0.0
1.17609546133 -0.00679430441087 0.0
1.18769218974 -0.0105871119127 0.0
1.1469382969 -0.0044973035621 0.0
1.16353807985 -0.00993803190939 0.0
0.862069263009 -0.000844769988862 0.0
1.20575052413 -0.161194061567 0.0
1.2918486934 -0.0109238942908 0.0
1.2803885914 -0.012789071836 0.0
1.30914999084 -0.00735533266483 0.0
1.26651931746 -0.0151280180193 0.0
1.30957445853 -0.00659964765588 0.0
1.21799970138 -0.0214807945046 0.0
1.24666440888 -0.0180021348296 0.0
1.31159226381 -0.00603366046351 0.0
1.31299986377 -0.00556190765544 0.0
1.31547813781 -0.00472399179138 0.0
1.31622053438 -0.00443943793669 0.0
1.31663545872 -0.00424288007263 0.0
1.31707135005 -0.00402281889226 0.0
1.31734186069 -0.00380000247419 0.0
1.30805713055 -0.0036078076859 0.0
1.3078665621 -0.00333236034377 0.0
1.30779095579 -0.00307582521283 0.0
1.20459315211 -0.0561936404038 0.0
1.30755611301 -0.00280438269902 0.0
1.30732108515 -0.00254641886528 0.0
1.30711345361 -0.00230470395939 0.0
1.17691554013 -0.0264869504661 0.0
1.30696033782 -0.00207930446109 0.0
1.1303936318 -0.0292632269097 0.0
1.12849602135 -0.0362011002857 0.0
1.30495888342 -0.00184452851282 0.0
1.30489411718 -0.00172943437047 0.0
0.819219564198 -0.000623545817897 0.0
1.30437337385 -0.00146352781992 0.0
0.82013466274 -0.000644901619056 0.0
0.961131883932 -0.00707708777098 0.0
0.980932914257 -0.00843019758075 0.0
0.920020941312 -0.00303846895195 0.0
1.07635222635 -0.0192737869517 0.0
1.00519242455 -0.0107422028709 0.0
0.907566654797 -0.00341963654334 0.0
1.03600971186 -0.0142366190332 0.0
0.897308586657 -0.00319539709271 0.0
0.888222694397 -0.00276995246214 0.0
0.880033696542 -0.00210166929124 0.0
0.873368606528 -0.00230860546026 0.0
0.867094696589 -0.00222670599919 0.0
0.861092750056 -0.00211944580759 0.0
0.855457174525 -0.00200631370395 0.0
0.85032779665 -0.00178904268705 0.0
0.845485801831 -0.00170033129067 0.0
0.8411448015 -0.00153467300917 0.0
0.837164547746 -0.00138663533159 0.0
0.833573213833 -0.0012597294563 0.0
0.83034405733 -0.00114745055194 0.0
1.30858780684 -0.00120348576543 0.0
0.827438615303 -0.00104094611034 0.0
0.824805421462 -0.000983880997013 0.0
0.822514345409 -0.000842153138952 0.0
0.820514647164 -0.000717352098083 0.0
1.32631274258 -0.00103465553543 0.0
1.03201017649 -0.0361779829716 0.0
1.33168750748 -0.000375679487445 0.0
1.31520191634 -0.00514877590741 0.0
1.31104636818 -0.00859334003342 0.0
1.30270984658 -0.00974559471104 0.0
1.32706346804 -0.00540472341072 0.0
0.823580021075 -0.00340230090711 0.0
0.864397032816 -0.00228326063606 0.0
0.881248763844 -0.00360052072205 0.0
0.890755825525 -0.00752757163015 0.0
1.16696825073 -0.0688271459703 0.0
1.02189113127 -0.0255788691285 0.0
1.33403713296 -0.000898514719525 0.0
1.38248323333 -0.00345312902911 0.0
1.3790639481 -0.00367847787842 0.0
1.1385722129 -0.0213319270619 0.0
1.37209683856 -0.00347236314783 0.0
1.07446547691 -0.0287567529014 0.0
1.37520847648 -0.00387715430423 0.0
1.37424874393 -0.00320619423208 0.0
1.37610086265 -0.00295200451365 0.0
1.36640598915 -0.00410072554326 0.0
0.932939210308 -0.0145984891179 0.0
1.3777572868 -0.00269446847936 0.0
1.36268358104 -0.00423076814639 0.0
1.3792536167 -0.00244719735287 0.0
1.38062735221 -0.0022194873564 0.0
1.18491270552 -0.0174013672405 0.0
1.38192011052 -0.0019986202552 0.0
1.37264838824 -0.00180420428436 0.0
1.42345039172 -0.00151745445508 0.0
0.595234967699 -4.03096491926e-05 0.0
1.35253765308 -0.0049963295849 0.0
1.42113581066 -0.00136739004298 0.0
0.611338532089 -0.000156920237815 0.0
0.571487936116 0.000182400285154 0.0
1.42192072709 -0.00120628936382 0.0
0.596567757067 -3.69975750181e-06 0.0
1.348295166 -0.00529378049003 0.0
1.22106256667 -0.014815890287 0.0
0.598112704695 -4.36404328857e-05 0.0
0.600106224822 -7.95878283039e-05 0.0
0.602307451041 -0.000113290680683 0.0
0.604779474125 -0.000147714322005 0.0
1.34186303653 -0.00571410352979 0.0
1.25056932592 -0.0128029087229 0.0
0.607546873819 -0.000194296990802 0.0
0.610649984832 -0.000246872197134 0.0
0.614128213469 -0.000312176463702 0.0
0.617905057582 -0.000349563093704 0.0
0.622720817375 -0.000541248565877 0.0
1.33368704519 -0.00613654187842 0.0
1.27380339201 -0.0111199594307 0.0
0.627297055523 -0.000591450573857 0.0
0.632231690468 -0.00066352105129 0.0
0.501525635297 -0.000430732542781 0.0
0.637493204422 -0.00071999942077 0.0
0.822294079725 -0.00780608227726 0.0
0.661742501554 -0.000842287511775 0.0
0.783861770345 -0.00549620211906 0.0
0.669824496394 -0.00103276339693 0.0
0.642717392031 -0.000722781196086 0.0
0.755460187161 -0.00409500673411 0.0
0.678255735763 -0.000882374418587 0.0
0.733421133923 -0.00309788090947 0.0
0.523951999527 0.000383130805369 0.0
0.6103015588 -0.00217144360174 0.0
0.544801378007 -0.000197395749531 0.0
1.32374739626 -0.00634458467887 0.0
1.29247418615 -0.0098443654023 0.0
1.30552441553 -0.0090976801299 0.0
1.32892406128 -0.00701938264375 0.0
1.35633084453 -0.00477687993391 0.0
1.36461947743 -0.00438668032571 0.0
0.629320333521 -0.00271868315643 0.0
0.844358101489 -0.00777863298997 0.0
1.42528609841 -0.000897897543588 0.0
1.03301684795 -0.0508732399058 0.0
1.10341723649 -0.000547715112018 0.0
1.17342562065 -0.000642870032373 0.0
1.04088389617 -0.0205099899032 0.0
0.49258019019 -6.07046674813e-05 0.0
1.10541588141 -0.0812216988671 0.0
0.998736559539 -0.0624169098931 0.0
0.539841406423 -0.00144600473076 0.0
1.4267385636 -0.00292873233573 0.0
1.42174990217 -0.00313552376499 0.0
1.43050741434 -0.00263551764801 0.0
1.41554071341 -0.0032909361804 0.0
1.28323033565 -0.301514145957 0.0
1.4084598927 -0.00346557440849 0.0
1.43534094423 -0.00244443027909 0.0
1.40162878768 -0.00358774814947 0.0
1.43973573053 -0.00224780269331 0.0
1.44372858309 -0.00204933708454 0.0
1.19624702421 -0.010586692154 0.0
1.37198973655 -0.00435485857199 0.0
1.10808131077 -0.0164643233708 0.0
1.36206962316 -0.00463714870098 0.0
1.23026865244 -0.00929898262483 0.0
1.44733909326 -0.001855913136 0.0
1.35102564398 -0.00496030802494 0.0
1.25905025489 -0.0082213439025 0.0
1.15621303545 -0.0125661118567 0.0
1.28338411336 -0.00732707505926 0.0
1.45061016513 -0.00167290108171 0.0
1.45231542739 -0.00150473080206 0.0
1.45384513088 -0.00137455862327 0.0
1.45302725588 -0.00105108581174 0.0
1.45666095714 -0.000952304732776 0.0
1.45960372218 -0.000908284006142 0.0
1.15195420706 -0.00435303636078 0.0
0.731624201644 -0.00943680628313 0.0
0.782830439914 -0.0156020483025 0.0
0.844580784637 -0.0215494935843 0.0
0.700762461182 -0.00806495581643 0.0
0.464932858125 -0.000600452712274 0.0
0.466419406667 -0.000601471038815 0.0
0.468179036386 -0.000643032748376 0.0
1.20014176149 -0.00844976306725 0.0
0.470158608089 -0.000665171627851 0.0
0.472356386978 -0.000705847833357 0.0
0.474787489347 -0.000749672885044 0.0
1.11029552952 -0.000774936297765 0.0
1.2049055551 -0.0107083731157 0.0
0.477490253834 -0.000799395131822 0.0
1.10918660583 -0.000757697991982 0.0
0.480502733044 -0.000861544400203 0.0
0.483848793603 -0.000944910562945 0.0
0.487271791054 -0.00058095087391 0.0
0.491157765333 -0.000623519913371 0.0
1.09854784626 -0.00117358662518 0.0
0.495399627821 -0.000673079952365 0.0
1.09999933843 -0.000899575825357 0.0
0.470525036819 -0.000491772785059 0.0
0.499930248913 -0.000718988016108 0.0
1.10157253114 -0.00115223093116 0.0
0.472345184835 -0.00052123516268 0.0
1.10381448167 -0.0012819223564 0.0
0.470237745067 -0.000834071126574 0.0
0.504689230524 -0.00081004450897 0.0
1.10583715314 -0.00144624211297 0.0
0.470605260807 -0.000516777923702 0.0
0.49508499415 -0.000294303502663 0.0
1.10813173527 -0.0016299007901 0.0
0.673328160647 -0.00738095635919 0.0
1.11070436697 -0.0018309961882 0.0
1.11358777811 -0.00205124171202 0.0
0.522841769287 -0.000710531485138 0.0
1.11663531091 -0.00226440089768 0.0
1.11730464968 -0.00258033144561 0.0
1.22686898024 -0.0265318844844 0.0
0.637351884051 -0.00491133183884 0.0
0.529642054001 -0.00115165342446 0.0
1.11908002446 -0.00261427416287 0.0
1.1231658054 -0.0027955723533 0.0
0.611566906613 -0.00378239959747 0.0
0.536946621027 -0.00122609645756 0.0
1.12746464925 -0.00292585760715 0.0
0.59200778756 -0.00301136192617 0.0
0.519646710211 -0.000524903596861 0.0
1.13198849897 -0.0030734579197 0.0
1.1341312689 -0.00324637329812 0.0
0.562417390768 -0.0021685789058 0.0
1.14598242689 -0.00486811844865 0.0
1.15271683143 -0.0042071126079 0.0
1.15937934533 -0.00459189865078 0.0
1.22044155859 -0.0205801512863 0.0
1.16672321819 -0.00507717144795 0.0
1.21151773919 -0.0164441667661 0.0
1.17149697162 -0.00568632753547 0.0
1.20222060327 -0.013460709665 0.0
1.19012216306 -0.0113727534271 0.0
1.22200089438 -0.0381502531815 0.0
1.20232658772 -0.0527774951769 0.0
1.18512321635 -0.0568517484615 0.0
1.18791522599 -0.00982770711716 0.0
1.2255550991 -0.0355467132143 0.0
1.22483255577 -0.026804118737 0.0
1.19769449431 -0.0120266260765 0.0
1.16282858915 -0.00698376321825 0.0
1.20837657849 -0.0151930649757 0.0
1.15432917274 -0.00648710939591 0.0
1.21847362783 -0.019702497623 0.0
1.1474255959 -0.00594764858715 0.0
0.58753231361 -0.00219169058044 0.0
1.14742908985 -0.00512936937263 0.0
0.606898270006 -0.0030438084551 0.0
0.546401088738 -0.00123476424189 0.0
0.676102707839 -0.00677184190827 0.0
1.12770732249 -0.00447434755587 0.0
0.628704495859 -0.00386916636362 0.0
0.543521223798 -0.00154800820209 0.0
1.12346748929 -0.00442605820884 0.0
1.11910560142 -0.00424935207691 0.0
0.657826986295 -0.00513325689031 0.0
0.536411788195 -0.00145634322862 0.0
1.11494125774 -0.00402706792784 0.0
1.4524471855 -0.00147667225809 0.0
1.11092909337 -0.00381631378016 0.0
1.12081180843 -0.00328793419474 0.0
0.506805794702 -0.000305663528698 0.0
1.11808187766 -0.00305739629224 0.0
1.11518677427 -0.00283016259489 0.0
1.11251245849 -0.00259803550407 0.0
1.11012915405 -0.00238663706111 0.0
1.10802702513 -0.00219836334285 0.0
1.10619335331 -0.00201917447288 0.0
1.10402043973 -0.00195343516584 0.0
1.10162313143 -0.000862590494639 0.0
1.10301588241 -0.00132906843238 0.0
1.10211681278 -0.00137101773946 0.0
1.0962534437 -0.00121838589365 0.0
1.38116951679 -0.00409060408231 0.0
1.45389168657 -0.00156648030006 0.0
0.516371367551 -0.00120472768769 0.0
0.506876808031 -0.00123591654564 0.0
0.50212678841 -0.00118586985588 0.0
0.497654876022 -0.00115314398968 0.0
0.49348386198 -0.00111268211536 0.0
1.45210650157 -0.00157401015643 0.0
0.48987808729 -0.000736700796404 0.0
0.486399816234 -0.000780358584423 0.0
0.483152574558 -0.000707157327436 0.0
0.480242962545 -0.00065545296747 0.0
0.477630638392 -0.000612072165665 0.0
0.475281299039 -0.000573721458305 0.0
1.45070513551 -0.00176775832666 0.0
0.473163131904 -0.00052971132461 0.0
0.471225609591 -0.000498544113871 0.0
0.46958174489 -0.000446767777848 0.0
0.471428588702 -0.000140271590924 0.0
1.44750620795 -0.00195976651157 0.0
1.44399796412 -0.00215304691407 0.0
1.31129874014 -0.00725783915911 0.0
1.44013958543 -0.00235517933341 0.0
1.33223918674 -0.00528438161264 0.0
0.864552524857 -0.000420453617324 0.0
1.43589613176 -0.00256009595639 0.0
1.00590414133 -0.0108351655296 0.0
1.08341408693 -0.018731915746 0.0
1.45413726291 -0.00130937443004 0.0
1.43122888734 -0.0027468684245 0.0
1.22164207438 -0.102438246593 0.0
1.42636961565 -0.00291365978258 0.0
1.43622808434 -0.00240841275142 0.0
1.38719071112 -0.00351057334862 0.0
1.42900448655 -0.00253996940134 0.0
1.4212543292 -0.00267802892359 0.0
1.45445664878 -0.000600311594101 0.0
1.41268669144 -0.00283939907513 0.0
1.40437826602 -0.0028192230863 0.0
1.1345827956 -0.0113186235995 0.0
1.17690647663 -0.00932063635692 0.0
1.37914281036 -0.00336789568841 0.0
1.34405956494 -0.00395550282448 0.0
1.29237259218 -0.00597655357686 0.0
1.36855544164 -0.003588400698 0.0
1.21259556231 -0.00825291797932 0.0
1.29076128682 -0.00219650905914 0.0