# vtk DataFile Version 2.0
2D Simulation Python
ASCII
DATASET UNSTRUCTURED_GRID
FIELD FieldData 1
NODES 1 2 int
8701 4270

POINTS 8701 double
-3.0 -3.0 0.0
3.0 -3.0 0.0
3.0 3.0 0.0
-3.0 3.0 0.0
-2.850000000000555 -3.0 0.0
-2.70000000000111 -3.0 0.0
-2.550000000001666 -3.0 0.0
-2.400000000002222 -3.0 0.0
-2.250000000002777 -3.0 0.0
-2.100000000003332 -3.0 0.0
-1.950000000003888 -3.0 0.0
-1.800000000004443 -3.0 0.0
-1.650000000004998 -3.0 0.0
-1.500000000005553 -3.0 0.0
-1.350000000006108 -3.0 0.0
-1.200000000006663 -3.0 0.0
-1.050000000007218 -3.0 0.0
-0.9000000000077728 -3.0 0.0
-0.750000000008328 -3.0 0.0
-0.6000000000088832 -3.0 0.0
-0.450000000009438 -3.0 0.0
-0.3000000000099927 -3.0 0.0
-0.1500000000105475 -3.0 0.0
-1.101607693954065e-11 -3.0 0.0
0.1499999999894523 -3.0 0.0
0.2999999999900069 -3.0 0.0
0.4499999999905624 -3.0 0.0
0.5999999999911179 -3.0 0.0
0.7499999999916724 -3.0 0.0
0.8999999999922284 -3.0 0.0
1.049999999992783 -3.0 0.0
1.199999999993338 -3.0 0.0
1.349999999993893 -3.0 0.0
1.499999999994449 -3.0 0.0
1.649999999995003 -3.0 0.0
1.799999999995559 -3.0 0.0
1.949999999996114 -3.0 0.0
2.09999999999667 -3.0 0.0
2.249999999997225 -3.0 0.0
2.399999999997779 -3.0 0.0
2.549999999998334 -3.0 0.0
2.69999999999889 -3.0 0.0
2.849999999999445 -3.0 0.0
-2.925000000000237 -3.0 0.0
-2.775000000000793 -3.0 0.0
-2.625000000001438 -3.0 0.0
-2.475000000001934 -3.0 0.0
-2.325000000002504 -3.0 0.0
-2.175000000003068 -3.0 0.0
-2.025000000003607 -3.0 0.0
-1.875000000004171 -3.0 0.0
-1.72500000000473 -3.0 0.0
-1.575000000005274 -3.0 0.0
-1.425000000005811 -3.0 0.0
-1.275000000006386 -3.0 0.0
-1.125000000006938 -3.0 0.0
-0.9750000000075185 -3.0 0.0
-0.8250000000080662 -3.0 0.0
-0.675000000008581 -3.0 0.0
-0.5250000000091606 -3.0 0.0
-0.3750000000096962 -3.0 0.0
-0.2250000000102048 -3.0 0.0
-0.07500000001078622 -3.0 0.0
0.07499999998906404 -3.0 0.0
0.2249999999897581 -3.0 0.0
0.3749999999902807 -3.0 0.0
0.5249999999908241 -3.0 0.0
0.6749999999914014 -3.0 0.0
0.8249999999919262 -3.0 0.0
0.9749999999925452 -3.0 0.0
1.124999999993133 -3.0 0.0
1.274999999993696 -3.0 0.0
1.424999999994114 -3.0 0.0
1.574999999994676 -3.0 0.0
1.724999999995203 -3.0 0.0
1.874999999995808 -3.0 0.0
2.024999999996392 -3.0 0.0
2.17499999999689 -3.0 0.0
2.324999999997472 -3.0 0.0
2.474999999997978 -3.0 0.0
2.624999999998591 -3.0 0.0
2.774999999999089 -3.0 0.0
2.924999999999713 -3.0 0.0
3.0 -2.850000000000555 0.0
3.0 -2.70000000000111 0.0
3.0 -2.550000000001666 0.0
3.0 -2.400000000002222 0.0
3.0 -2.250000000002777 0.0
3.0 -2.100000000003332 0.0
3.0 -1.950000000003888 0.0
3.0 -1.800000000004443 0.0
3.0 -1.650000000004998 0.0
3.0 -1.500000000005553 0.0
3.0 -1.350000000006108 0.0
3.0 -1.200000000006663 0.0
3.0 -1.050000000007218 0.0
3.0 -0.9000000000077728 0.0
3.0 -0.750000000008328 0.0
3.0 -0.6000000000088832 0.0
3.0 -0.450000000009438 0.0
3.0 -0.3000000000099927 0.0
3.0 -0.1500000000105475 0.0
3.0 -1.101607693954065e-11 0.0
3.0 0.1499999999894523 0.0
3.0 0.2999999999900069 0.0
3.0 0.4499999999905624 0.0
3.0 0.5999999999911179 0.0
3.0 0.7499999999916724 0.0
3.0 0.8999999999922284 0.0
3.0 1.049999999992783 0.0
3.0 1.199999999993338 0.0
3.0 1.349999999993893 0.0
3.0 1.499999999994449 0.0
3.0 1.649999999995003 0.0
3.0 1.799999999995559 0.0
3.0 1.949999999996114 0.0
3.0 2.09999999999667 0.0
3.0 2.249999999997225 0.0
3.0 2.399999999997779 0.0
3.0 2.549999999998334 0.0
3.0 2.69999999999889 0.0
3.0 2.849999999999445 0.0
3.0 -2.925000000000237 0.0
3.0 -2.775000000000793 0.0
3.0 -2.625000000001438 0.0
3.0 -2.475000000001934 0.0
3.0 -2.325000000002504 0.0
3.0 -2.175000000003068 0.0
3.0 -2.025000000003607 0.0
3.0 -1.875000000004171 0.0
3.0 -1.72500000000473 0.0
3.0 -1.575000000005274 0.0
3.0 -1.425000000005811 0.0
3.0 -1.275000000006386 0.0
3.0 -1.125000000006938 0.0
3.0 -0.9750000000075185 0.0
3.0 -0.8250000000080662 0.0
3.0 -0.675000000008581 0.0
3.0 -0.5250000000091606 0.0
3.0 -0.3750000000096962 0.0
3.0 -0.2250000000102048 0.0
3.0 -0.07500000001078622 0.0
3.0 0.07499999998906404 0.0
3.0 0.2249999999897581 0.0
3.0 0.3749999999902807 0.0
3.0 0.5249999999908241 0.0
3.0 0.6749999999914014 0.0
3.0 0.8249999999919262 0.0
3.0 0.9749999999925452 0.0
3.0 1.124999999993133 0.0
3.0 1.274999999993696 0.0
3.0 1.424999999994114 0.0
3.0 1.574999999994676 0.0
3.0 1.724999999995203 0.0
3.0 1.874999999995808 0.0
3.0 2.024999999996392 0.0
3.0 2.17499999999689 0.0
3.0 2.324999999997472 0.0
3.0 2.474999999997978 0.0
3.0 2.624999999998591 0.0
3.0 2.774999999999089 0.0
3.0 2.924999999999713 0.0
2.850000000000555 3.0 0.0
2.70000000000111 3.0 0.0
2.550000000001666 3.0 0.0
2.400000000002222 3.0 0.0
2.250000000002777 3.0 0.0
2.100000000003332 3.0 0.0
1.950000000003888 3.0 0.0
1.800000000004443 3.0 0.0
1.650000000004998 3.0 0.0
1.500000000005553 3.0 0.0
1.350000000006108 3.0 0.0
1.200000000006663 3.0 0.0
1.050000000007218 3.0 0.0
0.9000000000077728 3.0 0.0
0.750000000008328 3.0 0.0
0.6000000000088832 3.0 0.0
0.450000000009438 3.0 0.0
0.3000000000099927 3.0 0.0
0.1500000000105475 3.0 0.0
1.101607693954065e-11 3.0 0.0
-0.1499999999894523 3.0 0.0
-0.2999999999900069 3.0 0.0
-0.4499999999905624 3.0 0.0
-0.5999999999911179 3.0 0.0
-0.7499999999916724 3.0 0.0
-0.8999999999922284 3.0 0.0
-1.049999999992783 3.0 0.0
-1.199999999993338 3.0 0.0
-1.349999999993893 3.0 0.0
-1.499999999994449 3.0 0.0
-1.649999999995003 3.0 0.0
-1.799999999995559 3.0 0.0
-1.949999999996114 3.0 0.0
-2.09999999999667 3.0 0.0
-2.249999999997225 3.0 0.0
-2.399999999997779 3.0 0.0
-2.549999999998334 3.0 0.0
-2.69999999999889 3.0 0.0
-2.849999999999445 3.0 0.0
2.925000000000237 3.0 0.0
2.775000000000793 3.0 0.0
2.625000000001438 3.0 0.0
2.475000000001934 3.0 0.0
2.325000000002504 3.0 0.0
2.175000000003068 3.0 0.0
2.025000000003607 3.0 0.0
1.875000000004171 3.0 0.0
1.72500000000473 3.0 0.0
1.575000000005274 3.0 0.0
1.425000000005811 3.0 0.0
1.275000000006386 3.0 0.0
1.125000000006938 3.0 0.0
0.9750000000075185 3.0 0.0
0.8250000000080662 3.0 0.0
0.675000000008581 3.0 0.0
0.5250000000091606 3.0 0.0
0.3750000000096962 3.0 0.0
0.2250000000102048 3.0 0.0
0.07500000001078622 3.0 0.0
-0.07499999998906404 3.0 0.0
-0.2249999999897581 3.0 0.0
-0.3749999999902807 3.0 0.0
-0.5249999999908241 3.0 0.0
-0.6749999999914014 3.0 0.0
-0.8249999999919262 3.0 0.0
-0.9749999999925452 3.0 0.0
-1.124999999993133 3.0 0.0
-1.274999999993696 3.0 0.0
-1.424999999994114 3.0 0.0
-1.574999999994676 3.0 0.0
-1.724999999995203 3.0 0.0
-1.874999999995808 3.0 0.0
-2.024999999996392 3.0 0.0
-2.17499999999689 3.0 0.0
-2.324999999997472 3.0 0.0
-2.474999999997978 3.0 0.0
-2.624999999998591 3.0 0.0
-2.774999999999089 3.0 0.0
-2.924999999999713 3.0 0.0
-3.0 2.850000000000555 0.0
-3.0 2.70000000000111 0.0
-3.0 2.550000000001666 0.0
-3.0 2.400000000002222 0.0
-3.0 2.250000000002777 0.0
-3.0 2.100000000003332 0.0
-3.0 1.950000000003888 0.0
-3.0 1.800000000004443 0.0
-3.0 1.650000000004998 0.0
-3.0 1.500000000005553 0.0
-3.0 1.350000000006108 0.0
-3.0 1.200000000006663 0.0
-3.0 1.050000000007218 0.0
-3.0 0.9000000000077728 0.0
-3.0 0.750000000008328 0.0
-3.0 0.6000000000088832 0.0
-3.0 0.450000000009438 0.0
-3.0 0.3000000000099927 0.0
-3.0 0.1500000000105475 0.0
-3.0 1.101607693954065e-11 0.0
-3.0 -0.1499999999894523 0.0
-3.0 -0.2999999999900069 0.0
-3.0 -0.4499999999905624 0.0
-3.0 -0.5999999999911179 0.0
-3.0 -0.7499999999916724 0.0
-3.0 -0.8999999999922284 0.0
-3.0 -1.049999999992783 0.0
-3.0 -1.199999999993338 0.0
-3.0 -1.349999999993893 0.0
-3.0 -1.499999999994449 0.0
-3.0 -1.649999999995003 0.0
-3.0 -1.799999999995559 0.0
-3.0 -1.949999999996114 0.0
-3.0 -2.09999999999667 0.0
-3.0 -2.249999999997225 0.0
-3.0 -2.399999999997779 0.0
-3.0 -2.549999999998334 0.0
-3.0 -2.69999999999889 0.0
-3.0 -2.849999999999445 0.0
-3.0 2.925000000000237 0.0
-3.0 2.775000000000793 0.0
-3.0 2.625000000001438 0.0
-3.0 2.475000000001934 0.0
-3.0 2.325000000002504 0.0
-3.0 2.175000000003068 0.0
-3.0 2.025000000003607 0.0
-3.0 1.875000000004171 0.0
-3.0 1.72500000000473 0.0
-3.0 1.575000000005274 0.0
-3.0 1.425000000005811 0.0
-3.0 1.275000000006386 0.0
-3.0 1.125000000006938 0.0
-3.0 0.9750000000075185 0.0
-3.0 0.8250000000080662 0.0
-3.0 0.675000000008581 0.0
-3.0 0.5250000000091606 0.0
-3.0 0.3750000000096962 0.0
-3.0 0.2250000000102048 0.0
-3.0 0.07500000001078622 0.0
-3.0 -0.07499999998906404 0.0
-3.0 -0.2249999999897581 0.0
-3.0 -0.3749999999902807 0.0
-3.0 -0.5249999999908241 0.0
-3.0 -0.6749999999914014 0.0
-3.0 -0.8249999999919262 0.0
-3.0 -0.9749999999925452 0.0
-3.0 -1.124999999993133 0.0
-3.0 -1.274999999993696 0.0
-3.0 -1.424999999994114 0.0
-3.0 -1.574999999994676 0.0
-3.0 -1.724999999995203 0.0
-3.0 -1.874999999995808 0.0
-3.0 -2.024999999996392 0.0
-3.0 -2.17499999999689 0.0
-3.0 -2.324999999997472 0.0
-3.0 -2.474999999997978 0.0
-3.0 -2.624999999998591 0.0
-3.0 -2.774999999999089 0.0
-3.0 -2.924999999999713 0.0
0.01178508292839124 -0.005639775558806686 0.0
-1.237250553586254 -1.251622403063673 0.0
1.251622403063672 -1.237250553586254 0.0
1.237250553586254 1.251622403063672 0.0
-1.251622403063672 1.237250553586254 0.0
-0.007051853344788402 -1.679300477642999 0.0
1.679300477642999 -0.007051853344788532 0.0
0.007051853344788539 1.679300477642999 0.0
-1.679300477642998 0.007051853344788396 0.0
1.950873417149213 -1.943163401477931 0.0
1.943163401477931 1.950873417149213 0.0
-1.950873417149213 1.943163401477931 0.0
-1.943163401477932 -1.950873417149213 0.0
-0.4081304553869661 -0.8652658177673669 0.0
0.8652658177673669 -0.4081304553869658 0.0
0.3976040625410153 0.8433506020821817 0.0
-0.8409407665504713 0.4019163763067274 0.0
2.082182282167087 -0.8414548862751122 0.0
0.8414548862751122 2.082182282167087 0.0
-2.082182282167087 0.8414548862751114 0.0
-0.8414548862751121 -2.082182282167087 0.0
0.8569563153144735 -2.053321774537911 0.0
2.053321774537911 0.8569563153144736 0.0
-0.8569563153144735 2.05332177453791 0.0
-2.053321774537911 -0.856956315314473 0.0
0.3521924971498029 -0.9970401883602034 0.0
0.9970401883602036 0.3521924971498032 0.0
[...]
POINT_DATA 8701
VECTORS vector double
-1.0 1.0 0.0
-1.0 -1.0 0.0
1.0 -1.0 0.0
1.0 1.0 0.0
-1.0 0.95 0.0
-1.0 0.9 0.0
-1.0 0.850000000001 0.0
-1.0 0.800000000001 0.0
-1.0 0.750000000001 0.0
-1.0 0.700000000001 0.0
-1.0 0.650000000001 0.0
-1.0 0.600000000001 0.0
-1.0 0.550000000002 0.0
-1.0 0.500000000002 0.0
-1.0 0.450000000002 0.0
-1.0 0.400000000002 0.0
-1.0 0.350000000002 0.0
-1.0 0.300000000003 0.0
-1.0 0.250000000003 0.0
-1.0 0.200000000003 0.0
-1.0 0.150000000003 0.0
-1.0 0.100000000003 0.0
-1.0 0.0500000000035 0.0
-1.0 3.67202564651e-12 0.0
-1.0 -0.0499999999965 0.0
-1.0 -0.0999999999967 0.0
-1.0 -0.149999999997 0.0
-1.0 -0.199999999997 0.0
-1.0 -0.249999999997 0.0
-1.0 -0.299999999997 0.0
-1.0 -0.349999999998 0.0
-1.0 -0.399999999998 0.0
-1.0 -0.449999999998 0.0
-1.0 -0.499999999998 0.0
-1.0 -0.549999999998 0.0
-1.0 -0.599999999999 0.0
-1.0 -0.649999999999 0.0
-1.0 -0.699999999999 0.0
-1.0 -0.749999999999 0.0
-1.0 -0.799999999999 0.0
-1.0 -0.849999999999 0.0
-1.0 -0.9 0.0
-1.0 -0.95 0.0
-1.0 0.975 0.0
-1.0 0.925 0.0
-1.0 0.875 0.0
-1.0 0.825000000001 0.0
-1.0 0.775000000001 0.0
-1.0 0.725000000001 0.0
-1.0 0.675000000001 0.0
-1.0 0.625000000001 0.0
-1.0 0.575000000002 0.0
-1.0 0.525000000002 0.0
-1.0 0.475000000002 0.0
-1.0 0.425000000002 0.0
-1.0 0.375000000002 0.0
-1.0 0.325000000003 0.0
-1.0 0.275000000003 0.0
-1.0 0.225000000003 0.0
-1.0 0.175000000003 0.0
-1.0 0.125000000003 0.0
-1.0 0.0750000000034 0.0
-1.0 0.0250000000036 0.0
-1.0 -0.0249999999964 0.0
-1.0 -0.0749999999966 0.0
-1.0 -0.124999999997 0.0
-1.0 -0.174999999997 0.0
-1.0 -0.224999999997 0.0
-1.0 -0.274999999997 0.0
-1.0 -0.324999999998 0.0
-1.0 -0.374999999998 0.0
-1.0 -0.424999999998 0.0
-1.0 -0.474999999998 0.0
-1.0 -0.524999999998 0.0
-1.0 -0.574999999998 0.0
-1.0 -0.624999999999 0.0
-1.0 -0.674999999999 0.0
-1.0 -0.724999999999 0.0
-1.0 -0.774999999999 0.0
-1.0 -0.824999999999 0.0
-1.0 -0.875 0.0
-1.0 -0.925 0.0
-1.0 -0.975 0.0
-0.95 -1.0 0.0
-0.9 -1.0 0.0
-0.850000000001 -1.0 0.0
-0.800000000001 -1.0 0.0
-0.750000000001 -1.0 0.0
-0.700000000001 -1.0 0.0
-0.650000000001 -1.0 0.0
-0.600000000001 -1.0 0.0
-0.550000000002 -1.0 0.0
-0.500000000002 -1.0 0.0
-0.450000000002 -1.0 0.0
-0.400000000002 -1.0 0.0
-0.350000000002 -1.0 0.0
-0.300000000003 -1.0 0.0
-0.250000000003 -1.0 0.0
-0.200000000003 -1.0 0.0
-0.150000000003 -1.0 0.0
-0.100000000003 -1.0 0.0
-0.0500000000035 -1.0 0.0
-3.67202564651e-12 -1.0 0.0
0.0499999999965 -1.0 0.0
0.0999999999967 -1.0 0.0
0.149999999997 -1.0 0.0
0.199999999997 -1.0 0.0
0.249999999997 -1.0 0.0
0.299999999997 -1.0 0.0
0.349999999998 -1.0 0.0
0.399999999998 -1.0 0.0
0.449999999998 -1.0 0.0
0.499999999998 -1.0 0.0
0.549999999998 -1.0 0.0
0.599999999999 -1.0 0.0
0.649999999999 -1.0 0.0
0.699999999999 -1.0 0.0
0.749999999999 -1.0 0.0
0.799999999999 -1.0 0.0
0.849999999999 -1.0 0.0
0.9 -1.0 0.0
0.95 -1.0 0.0
-0.975 -1.0 0.0
-0.925 -1.0 0.0
-0.875 -1.0 0.0
-0.825000000001 -1.0 0.0
-0.775000000001 -1.0 0.0
-0.725000000001 -1.0 0.0
-0.675000000001 -1.0 0.0
-0.625000000001 -1.0 0.0
-0.575000000002 -1.0 0.0
-0.525000000002 -1.0 0.0
-0.475000000002 -1.0 0.0
-0.425000000002 -1.0 0.0
-0.375000000002 -1.0 0.0
-0.325000000003 -1.0 0.0
-0.275000000003 -1.0 0.0
-0.225000000003 -1.0 0.0
-0.175000000003 -1.0 0.0
-0.125000000003 -1.0 0.0
-0.0750000000034 -1.0 0.0
-0.0250000000036 -1.0 0.0
0.0249999999964 -1.0 0.0
0.0749999999966 -1.0 0.0
0.124999999997 -1.0 0.0
0.174999999997 -1.0 0.0
0.224999999997 -1.0 0.0
0.274999999997 -1.0 0.0
0.324999999998 -1.0 0.0
0.374999999998 -1.0 0.0
0.424999999998 -1.0 0.0
0.474999999998 -1.0 0.0
0.524999999998 -1.0 0.0
0.574999999998 -1.0 0.0
0.624999999999 -1.0 0.0
0.674999999999 -1.0 0.0
0.724999999999 -1.0 0.0
0.774999999999 -1.0 0.0
0.824999999999 -1.0 0.0
0.875 -1.0 0.0
0.925 -1.0 0.0
0.975 -1.0 0.0
1.0 -0.95 0.0
1.0 -0.9 0.0
1.0 -0.850000000001 0.0
1.0 -0.800000000001 0.0
1.0 -0.750000000001 0.0
1.0 -0.700000000001 0.0
1.0 -0.650000000001 0.0
1.0 -0.600000000001 0.0
1.0 -0.550000000002 0.0
1.0 -0.500000000002 0.0
1.0 -0.450000000002 0.0
1.0 -0.400000000002 0.0
1.0 -0.350000000002 0.0
1.0 -0.300000000003 0.0
1.0 -0.250000000003 0.0
1.0 -0.200000000003 0.0
1.0 -0.150000000003 0.0
1.0 -0.100000000003 0.0
1.0 -0.0500000000035 0.0
1.0 -3.67202564651e-12 0.0
1.0 0.0499999999965 0.0
1.0 0.0999999999967 0.0
1.0 0.149999999997 0.0
1.0 0.199999999997 0.0
1.0 0.249999999997 0.0
1.0 0.299999999997 0.0
1.0 0.349999999998 0.0
1.0 0.399999999998 0.0
1.0 0.449999999998 0.0
1.0 0.499999999998 0.0
1.0 0.549999999998 0.0
1.0 0.599999999999 0.0
1.0 0.649999999999 0.0
1.0 0.699999999999 0.0
1.0 0.749999999999 0.0
1.0 0.799999999999 0.0
1.0 0.849999999999 0.0
1.0 0.9 0.0
1.0 0.95 0.0
1.0 -0.975 0.0
1.0 -0.925 0.0
1.0 -0.875 0.0
1.0 -0.825000000001 0.0
1.0 -0.775000000001 0.0
1.0 -0.725000000001 0.0
1.0 -0.675000000001 0.0
1.0 -0.625000000001 0.0
1.0 -0.575000000002 0.0
1.0 -0.525000000002 0.0
1.0 -0.475000000002 0.0
1.0 -0.425000000002 0.0
1.0 -0.375000000002 0.0
1.0 -0.325000000003 0.0
1.0 -0.275000000003 0.0
1.0 -0.225000000003 0.0
1.0 -0.175000000003 0.0
1.0 -0.125000000003 0.0
1.0 -0.0750000000034 0.0
1.0 -0.0250000000036 0.0
1.0 0.0249999999964 0.0
1.0 0.0749999999966 0.0
1.0 0.124999999997 0.0
1.0 0.174999999997 0.0
1.0 0.224999999997 0.0
1.0 0.274999999997 0.0
1.0 0.324999999998 0.0
1.0 0.374999999998 0.0
1.0 0.424999999998 0.0
1.0 0.474999999998 0.0
1.0 0.524999999998 0.0
1.0 0.574999999998 0.0
1.0 0.624999999999 0.0
1.0 0.674999999999 0.0
1.0 0.724999999999 0.0
1.0 0.774999999999 0.0
1.0 0.824999999999 0.0
1.0 0.875 0.0
1.0 0.925 0.0
1.0 0.975 0.0
0.95 1.0 0.0
0.9 1.0 0.0
0.850000000001 1.0 0.0
0.800000000001 1.0 0.0
0.750000000001 1.0 0.0
0.700000000001 1.0 0.0
0.650000000001 1.0 0.0
0.600000000001 1.0 0.0
0.550000000002 1.0 0.0
0.500000000002 1.0 0.0
0.450000000002 1.0 0.0
0.400000000002 1.0 0.0
0.350000000002 1.0 0.0
0.300000000003 1.0 0.0
0.250000000003 1.0 0.0
0.200000000003 1.0 0.0
0.150000000003 1.0 0.0
0.100000000003 1.0 0.0
0.0500000000035 1.0 0.0
3.67202564651e-12 1.0 0.0
-0.0499999999965 1.0 0.0
-0.0999999999967 1.0 0.0
-0.149999999997 1.0 0.0
-0.199999999997 1.0 0.0
-0.249999999997 1.0 0.0
-0.299999999997 1.0 0.0
-0.349999999998 1.0 0.0
-0.399999999998 1.0 0.0
-0.449999999998 1.0 0.0
-0.499999999998 1.0 0.0
-0.549999999998 1.0 0.0
-0.599999999999 1.0 0.0
-0.649999999999 1.0 0.0
-0.699999999999 1.0 0.0
-0.749999999999 1.0 0.0
-0.799999999999 1.0 0.0
-0.849999999999 1.0 0.0
-0.9 1.0 0.0
-0.95 1.0 0.0
0.975 1.0 0.0
0.925 1.0 0.0
0.875 1.0 0.0
0.825000000001 1.0 0.0
0.775000000001 1.0 0.0
0.725000000001 1.0 0.0
0.675000000001 1.0 0.0
0.625000000001 1.0 0.0
0.575000000002 1.0 0.0
0.525000000002 1.0 0.0
0.475000000002 1.0 0.0
0.425000000002 1.0 0.0
0.375000000002 1.0 0.0
0.325000000003 1.0 0.0
0.275000000003 1.0 0.0
0.225000000003 1.0 0.0
0.175000000003 1.0 0.0
0.125000000003 1.0 0.0
0.0750000000034 1.0 0.0
0.0250000000036 1.0 0.0
-0.0249999999964 1.0 0.0
-0.0749999999966 1.0 0.0
-0.124999999997 1.0 0.0
-0.174999999997 1.0 0.0
-0.224999999997 1.0 0.0
-0.274999999997 1.0 0.0
-0.324999999998 1.0 0.0
-0.374999999998 1.0 0.0
-0.424999999998 1.0 0.0
-0.474999999998 1.0 0.0
-0.524999999998 1.0 0.0
-0.574999999998 1.0 0.0
-0.624999999999 1.0 0.0
-0.674999999999 1.0 0.0
-0.724999999999 1.0 0.0
-0.774999999999 1.0 0.0
-0.824999999999 1.0 0.0
-0.875 1.0 0.0
-0.925 1.0 0.0
-0.975 1.0 0.0
-0.00187992518627 -0.00392836097613 0.0
-0.417207467688 0.412416851195 0.0
-0.412416851195 -0.417207467688 0.0
0.417207467688 -0.412416851195 0.0
0.412416851195 0.417207467688 0.0
-0.559766825881 0.0023506177816 0.0
-0.0023506177816 -0.559766825881 0.0
0.559766825881 -0.0023506177816 0.0
0.0023506177816 0.559766825881 0.0
-0.647721133826 -0.65029113905 0.0
0.65029113905 -0.647721133826 0.0
0.647721133826 0.65029113905 0.0
-0.65029113905 0.647721133826 0.0
-0.288421939256 0.136043485129 0.0
-0.136043485129 -0.288421939256 0.0
0.281116867361 -0.132534687514 0.0
0.133972125436 0.28031358885 0.0
-0.280484962092 -0.694060760722 0.0
0.694060760722 -0.280484962092 0.0
0.280484962092 0.694060760722 0.0
-0.694060760722 0.280484962092 0.0
-0.684440591513 -0.285652105105 0.0
0.285652105105 -0.684440591513 0.0
0.684440591513 0.285652105105 0.0
-0.285652105105 0.684440591513 0.0
-0.332346729453 -0.11739749905 0.0
0.11739749905 -0.332346729453 0.0
0.336160336976 0.112322773633 0.0
-0.111589713697 0.328908331538 0.0
0.0681615273951 0.772838045147 0.0
-0.772838045147 0.0681615273951 0.0
-0.0681615273951 -0.772838045147 0.0
0.772838045147 -0.0681615273951 0.0
0.478488139162 0.788580743541 0.0
-0.788580743541 0.478488139162 0.0
-0.478488139162 -0.788580743541 0.0
0.788580743541 -0.478488139162 0.0
-0.782599046615 -0.478194349265 0.0
0.478194349265 -0.782599046615 0.0
0.782599046615 0.478194349265 0.0
-0.478194349265 0.782599046615 0.0
-0.205364225457 -0.486606372801 0.0
0.486606372801 -0.205364225457 0.0
-0.486606372801 0.205364225457 0.0
0.205364225457 0.486606372801 0.0
-0.786110093441 -0.80042372192 0.0
0.80042372192 -0.786110093441 0.0
0.786110093441 0.80042372192 0.0
-0.80042372192 0.786110093441 0.0
-0.228803950278 0.503813333311 0.0
-0.503813333311 -0.228803950278 0.0
0.228803950278 -0.503813333311 0.0
0.503813333311 0.228803950278 0.0
-0.806737406217 -0.122298346615 0.0
0.122298346615 -0.806737406217 0.0
0.806737406217 0.122298346615 0.0
-0.122298346615 0.806737406217 0.0
-0.478324604924 -0.584440534384 0.0
0.584440534384 -0.478324604924 0.0
0.478324604924 0.584440534384 0.0
-0.584440534384 0.478324604924 0.0
-0.599225865161 -0.441724712919 0.0
0.441724712919 -0.599225865161 0.0
0.599225865161 0.441724712919 0.0
-0.441724712919 0.599225865161 0.0
-0.1529000801 -0.102246724879 0.0
0.0993262699607 -0.14211211867 0.0
0.180843260033 0.0206053261892 0.0
-0.0996682419411 0.151701382544 0.0
-0.285495806325 0.295807916917 0.0
-0.295807916917 -0.285495806325 0.0
0.285495806325 -0.295807916917 0.0
0.307882860302 0.289059223345 0.0
0.627812661413 0.833242485223 0.0
-0.833242485223 0.627812661413 0.0
-0.627812661413 -0.833242485223 0.0
0.833242485223 -0.627812661413 0.0
-0.830570370752 -0.645837397335 0.0
0.645837397335 -0.830570370752 0.0
0.830570370752 0.645837397335 0.0
-0.645837397335 0.830570370752 0.0
0.399731706163 -0.029661484723 0.0
-0.396387510224 0.0186613273092 0.0
0.0213198271838 0.40468856042 0.0
-0.0186613273092 -0.396387510224 0.0
0.219681712031 0.83958182474 0.0
-0.219681712031 -0.83958182474 0.0
0.83958182474 -0.219681712031 0.0
-0.83958182474 0.219681712031 0.0
-0.840931260538 -0.32347730854 0.0
0.32347730854 -0.840931260538 0.0
0.840931260538 0.32347730854 0.0
-0.32347730854 0.840931260538 0.0
-0.649335444031 -0.129601331606 0.0
0.129601331606 -0.649335444031 0.0
0.649335444031 0.129601331606 0.0
-0.129601331606 0.649335444031 0.0
0.0540922821353 0.142075013879 0.0
-0.135823673504 -0.638160408885 0.0
0.638160408885 -0.135823673504 0.0
-0.638160408885 0.135823673504 0.0
0.135823673504 0.638160408885 0.0
0.333689991666 0.560876428788 0.0
-0.560876428788 0.333689991666 0.0
-0.333689991666 -0.560876428788 0.0
0.560876428788 -0.333689991666 0.0
-0.858093613125 0.357784267137 0.0
0.357784267137 0.858093613125 0.0
-0.357784267137 -0.858093613125 0.0
0.858093613125 -0.357784267137 0.0
-0.176560425678 0.0398197300151 0.0
-0.0410461963837 -0.175595483982 0.0
0.198936761435 0.156360728034 0.0
0.0979496972766 -0.467712484592 0.0
0.467712484592 0.0979496972766 0.0
-0.0967687563136 0.468894250976 0.0
-0.467712484592 -0.0979496972766 0.0
-0.00880702361898 0.26442041425 0.0
-0.8728224934 -0.0128783676763 0.0
-0.0128783676763 0.8728224934 0.0
0.0128783676763 -0.8728224934 0.0
0.8728224934 0.0128783676763 0.0
0.00657527878829 -0.691990789167 0.0
0.691990789167 0.00657527878829 0.0
-0.691990789167 -0.00657527878829 0.0
-0.00657527878829 0.691990789167 0.0
0.392246107741 0.693200293848 0.0
-0.392246107741 -0.693200293848 0.0
0.693200293848 -0.392246107741 0.0
-0.693200293848 0.392246107741 0.0
-0.534826972325 0.67690638994 0.0
-0.67690638994 -0.534826972325 0.0
0.534826972325 -0.67690638994 0.0
0.67690638994 0.534826972325 0.0
0.356273885526 -0.525734522329 0.0
-0.356273885526 0.525734522329 0.0
-0.525734522329 -0.356273885526 0.0
0.525734522329 0.356273885526 0.0
-0.405107022032 0.29413032826 0.0
0.29413032826 0.405107022032 0.0
0.405107022032 -0.29413032826 0.0
-0.29413032826 -0.405107022032 0.0
-0.219414709544 0.860768554631 0.0
-0.860768554631 -0.219414709544 0.0
0.219414709544 -0.860768554631 0.0
0.860768554631 0.219414709544 0.0
-0.214465827749 -0.197721952787 0.0
0.197002126371 -0.228598094271 0.0
-0.199886111819 0.214451756736 0.0
-0.879079352988 -0.882108910878 0.0
0.882108910878 -0.879079352988 0.0
0.879079352988 0.882108910878 0.0
-0.882108910878 0.879079352988 0.0
0.00901328463028 -0.295153662056 0.0
-0.295153662056 -0.00901328463028 0.0
-0.109461883297 -0.884292963788 0.0
0.884292963788 -0.109461883297 0.0
-0.884292963788 0.109461883297 0.0
0.109461883297 0.884292963788 0.0
0.529692455745 0.883007700303 0.0
-0.883007700303 0.529692455745 0.0
-0.529692455745 -0.883007700303 0.0
0.883007700303 -0.529692455745 0.0
-0.529126974481 0.883771243395 0.0
-0.883771243395 -0.529126974481 0.0
0.529126974481 -0.883771243395 0.0
0.883771243395 0.529126974481 0.0
0.545076466225 0.687786636945 0.0
-0.687786636945 0.545076466225 0.0
-0.545076466225 -0.687786636945 0.0
0.687786636945 -0.545076466225 0.0
-0.696515977369 -0.385269744827 0.0
0.385269744827 -0.696515977369 0.0
0.696515977369 0.385269744827 0.0
-0.385269744827 0.696515977369 0.0
0.287655073521 -0.0213530710358 0.0
-0.389747877058 0.141769760823 0.0
-0.141769760823 -0.389747877058 0.0
0.382498868918 -0.145956902635 0.0
0.141690962846 0.389667902158 0.0
-0.0903979022757 -0.498311731655 0.0
0.0903979022757 0.498311731655 0.0
-0.498311731655 0.0903979022757 0.0
0.498311731655 -0.0903979022757 0.0
-0.888367604729 0.734195031229 0.0
0.734195031229 0.888367604729 0.0
-0.734195031229 -0.888367604729 0.0
0.888367604729 -0.734195031229 0.0
-0.882460557873 -0.722725421462 0.0
0.722725421462 -0.882460557873 0.0
0.882460557873 0.722725421462 0.0
-0.722725421462 0.882460557873 0.0
-0.388046889992 -0.213063662958 0.0
-0.213063662958 0.388046889992 0.0
0.213063662958 -0.388046889992 0.0
0.384847164587 0.208967762045 0.0
-0.174336141596 -0.736277221708 0.0
0.736277221708 -0.174336141596 0.0
-0.736277221708 0.174336141596 0.0
0.174336141596 0.736277221708 0.0
-0.481818819317 0.487875522939 0.0
-0.487875522939 -0.481818819317 0.0
0.481818819317 -0.487875522939 0.0
0.487875522939 0.481818819317 0.0
0.237887661162 0.588451985856 0.0
-0.588451985856 0.237887661162 0.0
-0.237887661162 -0.588451985856 0.0
0.588451985856 -0.237887661162 0.0
-0.886060891722 -0.428509144989 0.0
0.428509144989 -0.886060891722 0.0
0.886060891722 0.428509144989 0.0
-0.428509144989 0.886060891722 0.0
0.703793467426 0.752164553742 0.0
-0.752164553742 0.703793467426 0.0
-0.703793467426 -0.752164553742 0.0
0.752164553742 -0.703793467426 0.0
0.0956807429381 -0.0457293295957 0.0
0.208556678648 -0.594634063959 0.0
0.594634063959 0.208556678648 0.0
-0.208556678648 0.594634063959 0.0
-0.594634063959 -0.208556678648 0.0
-0.58135998344 -0.582955278791 0.0
0.582955278791 -0.58135998344 0.0
-0.582955278791 0.58135998344 0.0
0.58135998344 0.582955278791 0.0
-0.312428914434 0.420365960451 0.0
-0.420365960451 -0.312428914434 0.0
0.312428914434 -0.420365960451 0.0
0.420365960451 0.312428914434 0.0
-0.770135745898 -0.227206021045 0.0
0.227206021045 -0.770135745898 0.0
0.770135745898 0.227206021045 0.0
-0.227206021045 0.770135745898 0.0
0.177498826836 -0.0904504394429 0.0
0.350978008693 -0.605020066685 0.0
0.605020066685 0.350978008693 0.0
-0.605020066685 -0.350978008693 0.0
-0.350978008693 0.605020066685 0.0
-0.0972366176219 -0.0172833853395 0.0
0.0768004039216 0.0462009143703 0.0
0.331848446232 -0.217582256225 0.0
-0.331848446232 0.217582256225 0.0
-0.217582256225 -0.331848446232 0.0
0.217582256225 0.331848446232 0.0
-0.899859970241 -0.129475778191 0.0
0.129475778191 -0.899859970241 0.0
0.899859970241 0.129475778191 0.0
-0.129475778191 0.899859970241 0.0
-0.602080303891 0.740973284255 0.0
-0.740973284255 -0.602080303891 0.0
0.602080303891 -0.740973284255 0.0
0.740973284255 0.602080303891 0.0
0.01483144815 -0.096376213218 0.0
-0.0322321460241 0.780271456336 0.0
0.0322321460241 -0.780271456336 0.0
0.780271456336 0.0322321460241 0.0
-0.780271456336 -0.0322321460241 0.0
0.137812283236 -0.54889654875 0.0
-0.54889654875 -0.137812283236 0.0
0.54889654875 0.137812283236 0.0
-0.137812283236 0.54889654875 0.0
-0.0271914859906 0.0981687365227 0.0
0.339613710598 0.756163547273 0.0
-0.756163547273 0.339613710598 0.0
-0.339613710598 -0.756163547273 0.0
0.756163547273 -0.339613710598 0.0
-0.915404306429 0.448445411814 0.0
0.448445411814 0.915404306429 0.0
-0.448445411814 -0.915404306429 0.0
0.915404306429 -0.448445411814 0.0
0.278533738561 0.910042192607 0.0
-0.278533738561 -0.910042192607 0.0
0.910042192607 -0.278533738561 0.0
-0.910042192607 0.278533738561 0.0
-0.248709790617 -0.0843888193153 0.0
0.090060109268 -0.250974141987 0.0
-0.0850505171041 0.234008591883 0.0
0.283853834803 0.193919531122 0.0
-0.130107587762 -0.187127662332 0.0
-0.187068241877 0.130062889599 0.0
0.244584162181 0.0780987077172 0.0
-0.746479682671 0.605656612663 0.0
0.605656612663 0.746479682671 0.0
-0.605656612663 -0.746479682671 0.0
0.746479682671 -0.605656612663 0.0
-0.502186701564 0.412723789122 0.0
-0.412723789122 -0.502186701564 0.0
0.502186701564 -0.412723789122 0.0
0.412723789122 0.502186701564 0.0
-0.777060920612 -0.718217091834 0.0
0.718217091834 -0.777060920612 0.0
0.777060920612 0.718217091834 0.0
-0.718217091834 0.777060920612 0.0
0.212824291267 0.245975817483 0.0
-0.0203740532723 0.184354742783 0.0
-0.0569163478213 0.392736915795 0.0
-0.396650171871 -0.0590551853552 0.0
0.0590551853552 -0.396650171871 0.0
0.392710851788 0.0599876789458 0.0
-0.473782865671 -0.0148592240471 0.0
0.0148592240471 -0.473782865671 0.0
0.473782865671 0.0148592240471 0.0
-0.0139410014401 0.476302847053 0.0
0.618933904279 0.918951395302 0.0
-0.918951395302 0.618933904279 0.0
-0.618933904279 -0.918951395302 0.0
0.918951395302 -0.618933904279 0.0
-0.910748119646 -0.613837194743 0.0
0.613837194743 -0.910748119646 0.0
0.910748119646 0.613837194743 0.0
-0.613837194743 0.910748119646 0.0
0.123628121031 0.196312796 0.0
0.0650675192662 0.325847047643 0.0
-0.30823627172 -0.197693678481 0.0
-0.196263070178 0.306261984241 0.0
0.197693678481 -0.30823627172 0.0
0.149866722438 0.550221432756 0.0
-0.550221432756 0.149866722438 0.0
-0.149866722438 -0.550221432756 0.0
0.550221432756 -0.149866722438 0.0
-0.0725379100168 -0.691435828389 0.0
0.691435828389 -0.0725379100168 0.0
-0.691435828389 0.0725379100168 0.0
0.0725379100168 0.691435828389 0.0
-0.758496379518 -0.330290435108 0.0
0.330290435108 -0.758496379518 0.0
0.758496379518 0.330290435108 0.0
-0.330290435108 0.758496379518 0.0
0.292656253748 -0.916657101317 0.0
0.916657101317 0.292656253748 0.0
-0.916657101317 -0.292656253748 0.0
-0.292656253748 0.916657101317 0.0
0.189958336036 0.909978334929 0.0
-0.909978334929 0.189958336036 0.0
-0.189958336036 -0.909978334929 0.0
0.909978334929 -0.189958336036 0.0
-0.0944559679742 0.722357196122 0.0
-0.722357196122 -0.0944559679742 0.0
0.0944559679742 -0.722357196122 0.0
0.722357196122 0.0944559679742 0.0
-0.693298690511 -0.200071974002 0.0
-0.200071974002 0.693298690511 0.0
0.200071974002 -0.693298690511 0.0
0.693298690511 0.200071974002 0.0
-0.0666619921603 -0.327471330525 0.0
-0.327471330525 0.0666619921603 0.0
-0.489155855321 0.283190815601 0.0
-0.283190815601 -0.489155855321 0.0
0.489155855321 -0.283190815601 0.0
0.283190815601 0.489155855321 0.0
-0.557505218288 0.806450511117 0.0
-0.806450511117 -0.557505218288 0.0
0.557505218288 -0.806450511117 0.0
0.806450511117 0.557505218288 0.0
-0.0964110046272 0.0735960059132 0.0
-0.0724665745376 -0.100531927461 0.0
0.558445100034 0.808820164459 0.0
-0.558445100034 -0.808820164459 0.0
0.808820164459 -0.558445100034 0.0
-0.808820164459 0.558445100034 0.0
-0.771762813598 0.261668802444 0.0