# vtk DataFile Version 2.0
2D Simulation Python
ASCII
DATASET UNSTRUCTURED_GRID
FIELD FieldData 1
NODES 1 2 int
14968 7299

POINTS 14968 double
0.0 1.0 0.0
1.725 1.0 0.0
8.275 1.0 0.0
10.0 1.0 0.0
10.0 0.0 0.0
0.0 0.0 0.0
0.05948275862057954 1.0 0.0
0.1189655172411507 1.0 0.0
0.1784482758617532 1.0 0.0
0.2379310344823185 1.0 0.0
0.2974137931028384 1.0 0.0
0.3568965517233564 1.0 0.0
0.4163793103438745 1.0 0.0
0.475862068964385 1.0 0.0
0.535344827584889 1.0 0.0
0.5948275862053855 1.0 0.0
0.654310344825882 1.0 0.0
0.7137931034463786 1.0 0.0
0.7732758620668752 1.0 0.0
0.8327586206874149 1.0 0.0
0.8922413793081027 1.0 0.0
0.9517241379289384 1.0 0.0
1.011206896549752 1.0 0.0
1.070689655170612 1.0 0.0
1.130172413791474 1.0 0.0
1.189655172412335 1.0 0.0
1.249137931033183 1.0 0.0
1.308620689654105 1.0 0.0
1.368103448274985 1.0 0.0
1.427586206895818 1.0 0.0
1.487068965516628 1.0 0.0
1.546551724137449 1.0 0.0
1.606034482758285 1.0 0.0
1.665517241379139 1.0 0.0
0.02974137931029072 1.0 0.0
0.08922413793086324 1.0 0.0
0.1487068965514534 1.0 0.0
0.208189655172049 1.0 0.0
0.2676724137925698 1.0 0.0
0.3271551724130939 1.0 0.0
0.3866379310336222 1.0 0.0
0.4461206896541293 1.0 0.0
0.5056034482746439 1.0 0.0
0.5650862068951479 1.0 0.0
0.624568965515645 1.0 0.0
0.6840517241361357 1.0 0.0
0.7435344827566197 1.0 0.0
0.8030172413771515 1.0 0.0
0.8624999999976763 1.0 0.0
0.9219827586185091 1.0 0.0
0.9814655172393557 1.0 0.0
1.040948275860181 1.0 0.0
1.100431034481038 1.0 0.0
1.159913793101895 1.0 0.0
1.219396551722753 1.0 0.0
1.278879310343654 1.0 0.0
1.338362068964579 1.0 0.0
1.397844827585388 1.0 0.0
1.457327586206215 1.0 0.0
1.516810344826985 1.0 0.0
1.576293103447828 1.0 0.0
1.635775862068708 1.0 0.0
1.695258620689603 1.0 0.0
1.784545454545345 1.0 0.0
1.844090909090676 1.0 0.0
1.903636363635991 1.0 0.0
1.963181818181336 1.0 0.0
2.022727272726716 1.0 0.0
2.082272727272112 1.0 0.0
2.141818181817408 1.0 0.0
2.201363636362702 1.0 0.0
2.260909090908037 1.0 0.0
2.320454545453433 1.0 0.0
2.379999999998759 1.0 0.0
2.439545454544053 1.0 0.0
2.499090909089358 1.0 0.0
2.558636363634754 1.0 0.0
2.618181818180109 1.0 0.0
2.677727272725404 1.0 0.0
2.737272727270631 1.0 0.0
2.796818181815906 1.0 0.0
2.856363636361191 1.0 0.0
2.915909090906408 1.0 0.0
2.975454545451703 1.0 0.0
3.034999999997049 1.0 0.0
3.094545454542377 1.0 0.0
3.154090909087591 1.0 0.0
3.21363636363288 1.0 0.0
3.273181818178196 1.0 0.0
3.332727272723555 1.0 0.0
3.392272727268849 1.0 0.0
3.451818181814208 1.0 0.0
3.511363636359524 1.0 0.0
3.570909090904812 1.0 0.0
3.630454545450026 1.0 0.0
3.689999999995355 1.0 0.0
3.749545454540702 1.0 0.0
3.809090909085996 1.0 0.0
3.868636363631291 1.0 0.0
3.928181818176585 1.0 0.0
3.987727272721861 1.0 0.0
4.047272727267021 1.0 0.0
4.106818181812208 1.0 0.0
4.166363636357625 1.0 0.0
4.225909090903122 1.0 0.0
4.285454545448432 1.0 0.0
4.34499999999356 1.0 0.0
4.404545454538917 1.0 0.0
4.464090909084414 1.0 0.0
4.523636363629791 1.0 0.0
4.583181818174936 1.0 0.0
4.642727272720208 1.0 0.0
4.702272727265705 1.0 0.0
4.761818181811142 1.0 0.0
4.821363636356348 1.0 0.0
4.880909090901557 1.0 0.0
4.940454545446997 1.0 0.0
4.999999999992493 1.0 0.0
5.059545454538018 1.0 0.0
5.119090909083717 1.0 0.0
5.17863636362933 1.0 0.0
5.238181818174827 1.0 0.0
5.297727272720321 1.0 0.0
5.357272727265989 1.0 0.0
5.416818181811662 1.0 0.0
5.476363636357158 1.0 0.0
5.535909090902654 1.0 0.0
5.595454545448262 1.0 0.0
5.65499999999396 1.0 0.0
5.714545454539491 1.0 0.0
5.774090909085032 1.0 0.0
5.83363636363093 1.0 0.0
5.893181818176673 1.0 0.0
5.952727272722171 1.0 0.0
6.012272727267668 1.0 0.0
6.071818181813491 1.0 0.0
6.131363636359353 1.0 0.0
6.190909090904849 1.0 0.0
6.250454545450346 1.0 0.0
6.309999999996052 1.0 0.0
6.369545454541951 1.0 0.0
6.429090909087529 1.0 0.0
6.488636363633026 1.0 0.0
6.548181818178611 1.0 0.0
6.60772727272451 1.0 0.0
6.667272727270209 1.0 0.0
6.726818181815705 1.0 0.0
6.786363636361202 1.0 0.0
6.845909090907071 1.0 0.0
6.905454545452889 1.0 0.0
6.964999999998385 1.0 0.0
7.024545454543881 1.0 0.0
7.084090909089378 1.0 0.0
7.143636363634876 1.0 0.0
7.20318181818037 1.0 0.0
7.262727272725868 1.0 0.0
7.322272727271365 1.0 0.0
7.381818181816859 1.0 0.0
7.441363636362357 1.0 0.0
7.500909090907854 1.0 0.0
7.560454545453348 1.0 0.0
7.619999999998846 1.0 0.0
7.679545454544343 1.0 0.0
7.739090909089839 1.0 0.0
7.798636363635335 1.0 0.0
7.858181818180832 1.0 0.0
7.917727272726328 1.0 0.0
7.977272727271824 1.0 0.0
8.036818181817441 1.0 0.0
8.09636363636334 1.0 0.0
8.155909090909008 1.0 0.0
8.215454545454504 1.0 0.0
1.754772727272673 1.0 0.0
1.814318181818009 1.0 0.0
1.873863636363333 1.0 0.0
1.933409090908672 1.0 0.0
1.992954545454031 1.0 0.0
2.052499999999414 1.0 0.0
2.112045454544734 1.0 0.0
2.171590909090055 1.0 0.0
2.231136363635354 1.0 0.0
2.290681818180733 1.0 0.0
2.35022727272609 1.0 0.0
2.409772727271409 1.0 0.0
2.469318181816729 1.0 0.0
2.528863636362083 1.0 0.0
2.588409090907435 1.0 0.0
2.647954545452764 1.0 0.0
2.70749999999803 1.0 0.0
2.767045454543256 1.0 0.0
2.826590909088563 1.0 0.0
2.886136363633805 1.0 0.0
2.945681818179043 1.0 0.0
3.005227272724398 1.0 0.0
3.064772727269736 1.0 0.0
3.124318181814993 1.0 0.0
3.183863636360237 1.0 0.0
3.243409090905498 1.0 0.0
3.302954545450869 1.0 0.0
3.362499999996201 1.0 0.0
3.422045454541534 1.0 0.0
3.481590909086889 1.0 0.0
3.541136363632178 1.0 0.0
3.600681818177425 1.0 0.0
3.660227272722711 1.0 0.0
3.719772727268038 1.0 0.0
3.779318181813342 1.0 0.0
3.838863636358643 1.0 0.0
3.898409090903943 1.0 0.0
3.957954545449228 1.0 0.0
4.017499999994459 1.0 0.0
4.077045454539567 1.0 0.0
4.136590909084866 1.0 0.0
4.196136363630398 1.0 0.0
4.255681818175789 1.0 0.0
4.31522727272101 1.0 0.0
4.374772727266199 1.0 0.0
4.434318181811665 1.0 0.0
4.493863636357126 1.0 0.0
4.55340909090234 1.0 0.0
4.612954545447561 1.0 0.0
4.672499999992919 1.0 0.0
4.732045454538429 1.0 0.0
4.791590909083769 1.0 0.0
4.851136363628941 1.0 0.0
4.910681818174305 1.0 0.0
4.970227272719745 1.0 0.0
5.029772727265215 1.0 0.0
5.089318181810858 1.0 0.0
5.148863636356518 1.0 0.0
5.208409090902078 1.0 0.0
5.267954545447563 1.0 0.0
5.32749999999314 1.0 0.0
5.387045454538812 1.0 0.0
5.446590909084395 1.0 0.0
5.506136363629908 1.0 0.0
5.565681818175434 1.0 0.0
5.625227272721118 1.0 0.0
5.68477272726672 1.0 0.0
5.744318181812282 1.0 0.0
5.803863636357981 1.0 0.0
5.863409090903753 1.0 0.0
5.922954545449448 1.0 0.0
5.98249999999492 1.0 0.0
6.042045454540572 1.0 0.0
6.10159090908641 1.0 0.0
6.161136363632073 1.0 0.0
6.220681818177569 1.0 0.0
6.280227272723183 1.0 0.0
6.339772727268974 1.0 0.0
6.399318181814714 1.0 0.0
6.45886363636027 1.0 0.0
6.518409090905834 1.0 0.0
6.577954545451583 1.0 0.0
6.637499999997363 1.0 0.0
6.697045454542931 1.0 0.0
6.756590909088454 1.0 0.0
6.8161363636342 1.0 0.0
6.875681818179999 1.0 0.0
6.935227272725616 1.0 0.0
6.994772727271133 1.0 0.0
7.054318181816615 1.0 0.0
7.113863636362105 1.0 0.0
7.173409090907585 1.0 0.0
7.232954545453119 1.0 0.0
7.292499999998594 1.0 0.0
7.352045454544166 1.0 0.0
7.411590909089607 1.0 0.0
7.471136363635079 1.0 0.0
7.530681818180621 1.0 0.0
7.590227272726104 1.0 0.0
7.649772727271595 1.0 0.0
7.709318181817098 1.0 0.0
7.768863636362564 1.0 0.0
7.828409090908048 1.0 0.0
7.88795454545358 1.0 0.0
7.947499999999069 1.0 0.0
8.007045454544631 1.0 0.0
8.066590909090369 1.0 0.0
8.126136363636165 1.0 0.0
8.185681818181749 1.0 0.0
8.245227272727199 1.0 0.0
8.334482758620055 1.0 0.0
8.393965517240051 1.0 0.0
8.453448275859904 1.0 0.0
8.51293103448045 1.0 0.0
8.572413793100301 1.0 0.0
8.631896551720153 1.0 0.0
8.6913793103407 1.0 0.0
8.750862068961245 1.0 0.0
8.810344827581792 1.0 0.0
8.869827586202339 1.0 0.0
8.929310344822884 1.0 0.0
8.988793103443431 1.0 0.0
9.048275862063978 1.0 0.0
9.107758620684523 1.0 0.0
9.16724137930507 1.0 0.0
9.226724137925617 1.0 0.0
9.286206896546162 1.0 0.0
9.345689655167401 1.0 0.0
9.405172413788595 1.0 0.0
9.46465517240963 1.0 0.0
9.524137931030667 1.0 0.0
9.583620689651704 1.0 0.0
9.643103448272907 1.0 0.0
9.702586206894148 1.0 0.0
9.762068965515388 1.0 0.0
9.821551724136627 1.0 0.0
9.881034482757867 1.0 0.0
9.940517241378963 1.0 0.0
8.304741379310085 1.0 0.0
8.364224137930028 1.0 0.0
8.423706896549978 1.0 0.0
8.48318965517026 1.0 0.0
8.542672413790376 1.0 0.0
8.602155172410113 1.0 0.0
8.661637931030402 1.0 0.0
8.721120689651029 1.0 0.0
8.78060344827138 1.0 0.0
8.84008620689213 1.0 0.0
8.899568965512502 1.0 0.0
8.959051724133055 1.0 0.0
9.018534482753648 1.0 0.0
9.078017241374363 1.0 0.0
9.137499999994688 1.0 0.0
9.196982758615343 1.0 0.0
9.256465517235805 1.0 0.0
9.315948275856895 1.0 0.0
9.375431034477998 1.0 0.0
9.434913793099138 1.0 0.0
9.494396551720149 1.0 0.0
9.55387931034146 1.0 0.0
9.613362068962203 1.0 0.0
9.672844827583809 1.0 0.0
9.73232758620488 1.0 0.0
9.791810344826095 1.0 0.0
9.851293103447228 1.0 0.0
9.910775862068462 1.0 0.0
9.970258620689481 1.0 0.0
10.0 0.9411764705879904 0.0
10.0 0.882352941175982 0.0
10.0 0.8235294117645425 0.0
10.0 0.764705882353186 0.0
10.0 0.7058823529418295 0.0
10.0 0.6470588235304731 0.0
10.0 0.5882352941191167 0.0
10.0 0.5294117647077601 0.0
10.0 0.4705882352960771 0.0
10.0 0.4117647058840672 0.0
10.0 0.3529411764720576 0.0
10.0 0.2941176470600479 0.0
10.0 0.2352941176480381 0.0
10.0 0.1764705882360285 0.0
10.0 0.1176470588240187 0.0
10.0 0.05882352941200908 0.0
10.0 0.9705882352939621 0.0
10.0 0.9117647058820033 0.0
10.0 0.8529411764702793 0.0
10.0 0.7941176470588772 0.0
10.0 0.7352941176474532 0.0
10.0 0.6764705882361493 0.0
10.0 0.6176470588248275 0.0
10.0 0.5588235294134586 0.0
10.0 0.5000000000020175 0.0
10.0 0.4411764705900721 0.0
10.0 0.3823529411780624 0.0
10.0 0.3235294117660528 0.0
10.0 0.264705882354043 0.0
10.0 0.2058823529420333 0.0
10.0 0.1470588235300236 0.0
10.0 0.0882352941180139 0.0
10.0 0.02941176470600448 0.0
9.940119760479043 0.0 0.0
9.880239520958083 0.0 0.0
9.820359281437126 0.0 0.0
9.760479041916167 0.0 0.0
9.70059880239521 0.0 0.0
9.640718562874252 0.0 0.0
9.580838323353293 0.0 0.0
[...]
POINT_DATA 14968
VECTORS vector double
0.0 0.0 0.0
0.0 0.0 0.0
0.0 0.0 0.0
0.0 0.0 0.0
-2.61137249215 0.0 0.0
2.0 0.0 0.0
0.0 0.0 0.0
0.0 0.0 0.0
0.0 0.0 0.0
0.0 0.0 0.0
0.0 0.0 0.0
0.0 0.0 0.0
0.0 0.0 0.0
0.0 0.0 0.0
0.0 0.0 0.0
0.0 0.0 0.0
0.0 0.0 0.0
0.0 0.0 0.0
0.0 0.0 0.0
0.0 0.0 0.0
0.0 0.0 0.0
0.0 0.0 0.0
0.0 0.0 0.0
0.0 0.0 0.0
0.0 0.0 0.0
0.0 0.0 0.0
0.0 0.0 0.0
0.0 0.0 0.0
0.0 0.0 0.0
0.0 0.0 0.0
0.0 0.0 0.0
0.0 0.0 0.0
0.0 0.0 0.0
0.0 0.0 0.0
0.0 0.0 0.0
0.0 0.0 0.0
0.0 0.0 0.0
0.0 0.0 0.0
0.0 0.0 0.0
0.0 0.0 0.0
0.0 0.0 0.0
0.0 0.0 0.0
0.0 0.0 0.0
0.0 0.0 0.0
0.0 0.0 0.0
0.0 0.0 0.0
0.0 0.0 0.0
0.0 0.0 0.0
0.0 0.0 0.0
0.0 0.0 0.0
0.0 0.0 0.0
0.0 0.0 0.0
0.0 0.0 0.0
0.0 0.0 0.0
0.0 0.0 0.0
0.0 0.0 0.0
0.0 0.0 0.0
0.0 0.0 0.0
0.0 0.0 0.0
0.0 0.0 0.0
0.0 0.0 0.0
0.0 0.0 0.0
0.0 0.0 0.0
0.0 0.0 0.0
0.0 0.0 0.0
0.0 0.0 0.0
0.0 0.0 0.0
0.0 0.0 0.0
0.0 0.0 0.0
0.0 0.0 0.0
0.0 0.0 0.0
0.0 0.0 0.0
0.0 0.0 0.0
0.0 0.0 0.0
0.0 0.0 0.0
0.0 0.0 0.0
0.0 0.0 0.0
0.0 0.0 0.0
0.0 0.0 0.0
0.0 0.0 0.0
0.0 0.0 0.0
0.0 0.0 0.0
0.0 0.0 0.0
0.0 0.0 0.0
0.0 0.0 0.0
0.0 0.0 0.0
0.0 0.0 0.0
0.0 0.0 0.0
0.0 0.0 0.0
0.0 0.0 0.0
0.0 0.0 0.0
0.0 0.0 0.0
0.0 0.0 0.0
0.0 0.0 0.0
0.0 0.0 0.0
0.0 0.0 0.0
0.0 0.0 0.0
0.0 0.0 0.0
0.0 0.0 0.0
0.0 0.0 0.0
0.0 0.0 0.0
0.0 0.0 0.0
0.0 0.0 0.0
0.0 0.0 0.0
0.0 0.0 0.0
0.0 0.0 0.0
0.0 0.0 0.0
0.0 0.0 0.0
0.0 0.0 0.0
0.0 0.0 0.0
0.0 0.0 0.0
0.0 0.0 0.0
0.0 0.0 0.0
0.0 0.0 0.0
0.0 0.0 0.0
0.0 0.0 0.0
0.0 0.0 0.0
0.0 0.0 0.0
0.0 0.0 0.0
0.0 0.0 0.0
0.0 0.0 0.0
0.0 0.0 0.0
0.0 0.0 0.0
0.0 0.0 0.0
0.0 0.0 0.0
0.0 0.0 0.0
0.0 0.0 0.0
0.0 0.0 0.0
0.0 0.0 0.0
0.0 0.0 0.0
0.0 0.0 0.0
0.0 0.0 0.0
0.0 0.0 0.0
0.0 0.0 0.0
0.0 0.0 0.0
0.0 0.0 0.0
0.0 0.0 0.0
0.0 0.0 0.0
0.0 0.0 0.0
0.0 0.0 0.0
0.0 0.0 0.0
0.0 0.0 0.0
0.0 0.0 0.0
0.0 0.0 0.0
0.0 0.0 0.0
0.0 0.0 0.0
0.0 0.0 0.0
0.0 0.0 0.0
0.0 0.0 0.0
0.0 0.0 0.0
0.0 0.0 0.0
0.0 0.0 0.0
0.0 0.0 0.0
0.0 0.0 0.0
0.0 0.0 0.0
0.0 0.0 0.0
0.0 0.0 0.0
0.0 0.0 0.0
0.0 0.0 0.0
0.0 0.0 0.0
0.0 0.0 0.0
0.0 0.0 0.0
0.0 0.0 0.0
0.0 0.0 0.0
0.0 0.0 0.0
0.0 0.0 0.0
0.0 0.0 0.0
0.0 0.0 0.0
0.0 0.0 0.0
0.0 0.0 0.0
0.0 0.0 0.0
0.0 0.0 0.0
0.0 0.0 0.0
0.0 0.0 0.0
0.0 0.0 0.0
0.0 0.0 0.0
0.0 0.0 0.0
0.0 0.0 0.0
0.0 0.0 0.0
0.0 0.0 0.0
0.0 0.0 0.0
0.0 0.0 0.0
0.0 0.0 0.0
0.0 0.0 0.0
0.0 0.0 0.0
0.0 0.0 0.0
0.0 0.0 0.0
0.0 0.0 0.0
0.0 0.0 0.0
0.0 0.0 0.0
0.0 0.0 0.0
0.0 0.0 0.0
0.0 0.0 0.0
0.0 0.0 0.0
0.0 0.0 0.0
0.0 0.0 0.0
0.0 0.0 0.0
0.0 0.0 0.0
0.0 0.0 0.0
0.0 0.0 0.0
0.0 0.0 0.0
0.0 0.0 0.0
0.0 0.0 0.0
0.0 0.0 0.0
0.0 0.0 0.0
0.0 0.0 0.0
0.0 0.0 0.0
0.0 0.0 0.0
0.0 0.0 0.0
0.0 0.0 0.0
0.0 0.0 0.0
0.0 0.0 0.0
0.0 0.0 0.0
0.0 0.0 0.0
0.0 0.0 0.0
0.0 0.0 0.0
0.0 0.0 0.0
0.0 0.0 0.0
0.0 0.0 0.0
0.0 0.0 0.0
0.0 0.0 0.0
0.0 0.0 0.0
0.0 0.0 0.0
0.0 0.0 0.0
0.0 0.0 0.0
0.0 0.0 0.0
0.0 0.0 0.0
0.0 0.0 0.0
0.0 0.0 0.0
0.0 0.0 0.0
0.0 0.0 0.0
0.0 0.0 0.0
0.0 0.0 0.0
0.0 0.0 0.0
0.0 0.0 0.0
0.0 0.0 0.0
0.0 0.0 0.0
0.0 0.0 0.0
0.0 0.0 0.0
0.0 0.0 0.0
0.0 0.0 0.0
0.0 0.0 0.0
0.0 0.0 0.0
0.0 0.0 0.0
0.0 0.0 0.0
0.0 0.0 0.0
0.0 0.0 0.0
0.0 0.0 0.0
0.0 0.0 0.0
0.0 0.0 0.0
0.0 0.0 0.0
0.0 0.0 0.0
0.0 0.0 0.0
0.0 0.0 0.0
0.0 0.0 0.0
0.0 0.0 0.0
0.0 0.0 0.0
0.0 0.0 0.0
0.0 0.0 0.0
0.0 0.0 0.0
0.0 0.0 0.0
0.0 0.0 0.0
0.0 0.0 0.0
0.0 0.0 0.0
0.0 0.0 0.0
0.0 0.0 0.0
0.0 0.0 0.0
0.0 0.0 0.0
0.0 0.0 0.0
0.0 0.0 0.0
0.0 0.0 0.0
0.0 0.0 0.0
0.0 0.0 0.0
0.0 0.0 0.0
0.0 0.0 0.0
0.0 0.0 0.0
0.0 0.0 0.0
0.0 0.0 0.0
0.0 0.0 0.0
0.0 0.0 0.0
0.0 0.0 0.0
0.0 0.0 0.0
0.0 0.0 0.0
0.0 0.0 0.0
0.0 0.0 0.0
0.0 0.0 0.0
0.0 0.0 0.0
0.0 0.0 0.0
0.0 0.0 0.0
0.0 0.0 0.0
0.0 0.0 0.0
0.0 0.0 0.0
0.0 0.0 0.0
0.0 0.0 0.0
0.0 0.0 0.0
0.0 0.0 0.0
0.0 0.0 0.0
0.0 0.0 0.0
0.0 0.0 0.0
0.0 0.0 0.0
0.0 0.0 0.0
0.0 0.0 0.0
0.0 0.0 0.0
0.0 0.0 0.0
0.0 0.0 0.0
0.0 0.0 0.0
0.0 0.0 0.0
0.0 0.0 0.0
0.0 0.0 0.0
0.0 0.0 0.0
0.0 0.0 0.0
0.0 0.0 0.0
0.0 0.0 0.0
0.0 0.0 0.0
0.0 0.0 0.0
0.0 0.0 0.0
0.0 0.0 0.0
0.0 0.0 0.0
0.0 0.0 0.0
0.0 0.0 0.0
0.0 0.0 0.0
0.0 0.0 0.0
0.0 0.0 0.0
0.0 0.0 0.0
0.0 0.0 0.0
0.0 0.0 0.0
0.0 0.0 0.0
0.0 0.0 0.0
0.0 0.0 0.0
0.0 0.0 0.0
0.0 0.0 0.0
0.0 0.0 0.0
0.0 0.0 0.0
0.0 0.0 0.0
0.0 0.0 0.0
0.0 0.0 0.0
0.0 0.0 0.0
0.0 0.0 0.0
0.0 0.0 0.0
0.253459322837 -0.002824740591 0.0
0.485302870577 -0.00480700750253 0.0
0.678178390899 -0.00608614494378 0.0
0.879114340995 -0.0108943020274 0.0
1.09034573881 -0.0148416250088 0.0
1.19655182302 -0.00695117270543 0.0
1.28808122182 -0.0233748375056 0.0
1.43130224976 -0.0255218321741 0.0
1.49497372338 -0.0377127515368 0.0
1.61740905244 -0.0418546834477 0.0
1.60118927268 -0.0488195517126 0.0
1.7200455868 -0.0706783219959 0.0
1.6271393606 -0.0587142896423 0.0
1.51011749374 -0.0841906129006 0.0
1.47412136355 -0.12797079763 0.0
1.40769137666 -0.265148584195 0.0
0.120851185151 0.00131493139045 0.0
0.352961515028 0.00238282352668 0.0
0.566305963567 0.00183057076698 0.0
0.76692560651 0.00313827293123 0.0
0.94823878249 0.00511126375686 0.0
1.11446753244 0.00213486234983 0.0
1.23496057885 -0.000861197855222 0.0
1.3687328127 0.0148601332932 0.0
1.48765280774 0.01226925699 0.0
1.56985312605 0.0250003627815 0.0
1.6514517859 0.0182511439092 0.0
1.7249530393 0.0343570562822 0.0
1.7465413894 0.0219431789053 0.0
1.86408281889 0.0324723483862 0.0
1.80809219167 0.0250832320168 0.0
1.87914424359 0.0911038871573 0.0
1.68046986697 0.105341084614 0.0
-3.27682066671 0.0 0.0
-3.18290431494 0.0 0.0
-3.06936582708 0.0 0.0
-3.07677745031 0.0 0.0
-3.04966851872 0.0 0.0
-3.11994951818 0.0 0.0
-2.67621604324 0.0 0.0
-3.22288600518 0.0 0.0
-2.77301771526 0.0 0.0
-3.1551122045 0.0 0.0
-3.30743695774 0.0 0.0
-2.74785822611 0.0 0.0
-3.29406679875 0.0 0.0
-3.22812041035 0.0 0.0
-3.2218690528 0.0 0.0
-3.26803886028 0.0 0.0
-3.2421138237 0.0 0.0
-2.77558951152 0.0 0.0
-3.12612547364 0.0 0.0
-3.26490203458 0.0 0.0
-3.08034583841 0.0 0.0
-3.00557144788 0.0 0.0
-3.31829371756 0.0 0.0
-2.84073708144 0.0 0.0
-3.1100277587 0.0 0.0
-3.20060208588 0.0 0.0
-3.37674338502 0.0 0.0
-3.13553831962 0.0 0.0
-3.36201871908 0.0 0.0
-3.31549295047 0.0 0.0
-3.43600717274 0.0 0.0
-2.83208373096 0.0 0.0
-3.44050323721 0.0 0.0
-3.01669362257 0.0 0.0
-4.69487762769 0.0 0.0
-3.03455503368 0.0 0.0
-3.4588052617 0.0 0.0
-3.33740283843 0.0 0.0
-3.30544784852 0.0 0.0
-3.48179319467 0.0 0.0
-2.84737718572 0.0 0.0
-3.49463345477 0.0 0.0
-3.04839196268 0.0 0.0
-4.68094626646 0.0 0.0
-3.23531754843 0.0 0.0
-3.40445522578 0.0 0.0
-3.35217600423 0.0 0.0
-3.35479876395 0.0 0.0
-3.5310870565 0.0 0.0
-2.82317496465 0.0 0.0
-3.5633459917 0.0 0.0
-3.05805166521 0.0 0.0
-4.67963495997 0.0 0.0
-3.24444360677 0.0 0.0
-3.36580556567 0.0 0.0
-3.47624323198 0.0 0.0
-3.43073435555 0.0 0.0
-3.59832743319 0.0 0.0
-2.85382180561 0.0 0.0
-3.63371981776 0.0 0.0
-3.08093442704 0.0 0.0
-4.73643941028 0.0 0.0
-3.31212816828 0.0 0.0
-3.39280272308 0.0 0.0
-3.48199338839 0.0 0.0
-3.62434650971 0.0 0.0
-3.53125679274 0.0 0.0
-3.38423570918 0.0 0.0
-3.2805358613 0.0 0.0
-3.40572607482 0.0 0.0
-3.42328835454 0.0 0.0
-3.51160553614 0.0 0.0
-3.72586084445 0.0 0.0
-3.03586964648 0.0 0.0
-3.74266757069 0.0 0.0
-3.44212856809 0.0 0.0
-3.60599841128 0.0 0.0
-3.61074363369 0.0 0.0
-2.97448031579 0.0 0.0
-3.72897806207 0.0 0.0
-3.65419511852 0.0 0.0
-3.677819776 0.0 0.0
-3.78866388318 0.0 0.0
-3.02612313139 0.0 0.0
-3.87713398198 0.0 0.0
-3.61767307042 0.0 0.0
-3.49753185582 0.0 0.0
-3.52661890824 0.0 0.0
-3.37891115737 0.0 0.0
-3.59429612703 0.0 0.0
-3.87240274345 0.0 0.0
-3.88413620502 0.0 0.0
-3.58883614211 0.0 0.0
-3.36024605567 0.0 0.0
-3.23036178623 0.0 0.0
-5.30900337209 0.0 0.0
-3.27096859196 0.0 0.0
-3.94564810019 0.0 0.0
-3.01950900516 0.0 0.0
-3.89505493044 0.0 0.0
-3.81115110611 0.0 0.0
-3.82516841815 0.0 0.0
-3.68674062238 0.0 0.0
-3.47567054635 0.0 0.0
-5.31646014318 0.0 0.0
-3.27121753139 0.0 0.0
-4.09998642375 0.0 0.0
-3.03850770381 0.0 0.0
-3.94851123266 0.0 0.0
-3.83953030256 0.0 0.0
-3.91245207095 0.0 0.0
-3.69007290335 0.0 0.0
-3.50291767401 0.0 0.0
-5.51719861232 0.0 0.0
-3.33561554822 0.0 0.0
-4.22364061868 0.0 0.0
-3.09392011649 0.0 0.0
-4.01535337624 0.0 0.0
-3.90303509096 0.0 0.0
-3.91406412546 0.0 0.0
-3.85987646967 0.0 0.0
-3.60929359986 0.0 0.0
-5.82720072639 0.0 0.0
-3.44535406248 0.0 0.0
-4.35782639411 0.0 0.0
-3.23227017273 0.0 0.0
-4.12175849621 0.0 0.0
-4.03130661731 0.0 0.0
-4.09970379485 0.0 0.0
-4.18421543635 0.0 0.0
-3.49762428115 0.0 0.0
-6.22993460773 0.0 0.0
-3.57775228871 0.0 0.0
-4.53932642988 0.0 0.0
-3.36744800387 0.0 0.0
-4.33999624346 0.0 0.0
-4.30913654907 0.0 0.0
-4.40219205435 0.0 0.0
-3.90096075898 0.0 0.0
-4.53336886343 0.0 0.0
-4.38966970497 0.0 0.0
-4.2358055307 0.0 0.0
-3.70963185994 0.0 0.0
-4.64496607503 0.0 0.0
-3.87712581822 0.0 0.0
-4.07929105763 0.0 0.0
-4.57842672063 0.0 0.0
-4.41460090184 0.0 0.0
-3.79538610231 0.0 0.0
-4.90157430564 0.0 0.0
-4.72322008482 0.0 0.0
-4.81684292139 0.0 0.0
-4.90961104965 0.0 0.0
-4.90881521468 0.0 0.0
-3.90127484992 0.0 0.0
-5.64567584678 0.0 0.0
-5.03620315028 0.0 0.0
-4.04475268034 0.0 0.0
-5.86116612073 0.0 0.0
-4.20370604136 0.0 0.0
-5.65568272363 0.0 0.0
-5.26967066499 0.0 0.0
-5.44646419102 0.0 0.0
-5.67765174782 0.0 0.0
-6.08560410812 0.0 0.0
-6.28175849064 0.0 0.0
-1.81358329724 0.0 0.0
-1.54676205626 0.0 0.0
-2.07033939592 0.0 0.0
-1.49292132319 0.0 0.0
-2.01019022393 0.0 0.0
-1.706544583 0.0 0.0
-1.45595776583 0.0 0.0
-1.81496733912 0.0 0.0
-1.03670143662 0.0 0.0
-1.8145883019 0.0 0.0
-1.46088285589 0.0 0.0
-1.52949923754 0.0 0.0
-1.66526454914 0.0 0.0
-2.15513923244 0.0 0.0
-1.23934379591 0.0 0.0
-2.1853201197 0.0 0.0
-1.90777104247 0.0 0.0
-1.38897323025 0.0 0.0
-1.36846798958 0.0 0.0
-2.12859005304 0.0 0.0
-1.45225414564 0.0 0.0
-2.15677889144 0.0 0.0
-1.78008396521 0.0 0.0
-1.57407131463 0.0 0.0
-1.49487434317 0.0 0.0
-2.09768196098 0.0 0.0
-1.28635771215 0.0 0.0
-2.09637363331 0.0 0.0
-2.15866855903 0.0 0.0
-1.35718037565 0.0 0.0
-2.21409556176 0.0 0.0
-1.79313771747 0.0 0.0
-1.63389051664 0.0 0.0
-1.62005626825 0.0 0.0
-2.76789750224 0.0 0.0
-2.62577187393 0.0 0.0
-1.7814391101 0.0 0.0
-2.30380495871 0.0 0.0
-1.38119304791 0.0 0.0
-2.13832149701 0.0 0.0
-2.00566054783 0.0 0.0
-1.68162313263 0.0 0.0
-1.63572448568 0.0 0.0
-2.74311718462 0.0 0.0
-2.88846955014 0.0 0.0
-2.06966876412 0.0 0.0
-2.22217308174 0.0 0.0
-1.43420299814 0.0 0.0
-2.18698186284 0.0 0.0
-1.97271117121 0.0 0.0
-1.71295048121 0.0 0.0
-1.66231440434 0.0 0.0
-2.79178030948 0.0 0.0
-2.8684315731 0.0 0.0
-2.01318667075 0.0 0.0
-2.31347211714 0.0 0.0
-1.43306307735 0.0 0.0
-2.22377250554 0.0 0.0
-2.01472350838 0.0 0.0
-1.74597429327 0.0 0.0
-1.70018829758 0.0 0.0
-2.89026110016 0.0 0.0
-2.8732189661 0.0 0.0
-2.02912809781 0.0 0.0
-2.32038974082 0.0 0.0
-1.55131466688 0.0 0.0
-2.03323662735 0.0 0.0
-2.3912362621 0.0 0.0
-1.60089740523 0.0 0.0
-1.84078660488 0.0 0.0
-2.28366931521 0.0 0.0
-2.28413172546 0.0 0.0
-1.66530266188 0.0 0.0
-1.84533713392 0.0 0.0
-2.15990124863 0.0 0.0
-1.41514730691 0.0 0.0
-2.45235460706 0.0 0.0
-1.6686642741 0.0 0.0
-2.0875089945 0.0 0.0
-1.99570870948 0.0 0.0
-2.20001677859 0.0 0.0
-1.47656504459 0.0 0.0
-2.61393401392 0.0 0.0
-1.92607382618 0.0 0.0
-1.80878173409 0.0 0.0
-1.7092756138 0.0 0.0
-2.35212875762 0.0 0.0
-2.33752486227 0.0 0.0
-1.9261160922 0.0 0.0
-1.73762619984 0.0 0.0
-2.53520436768 0.0 0.0
-1.9535251386 0.0 0.0
-2.50571532604 0.0 0.0
-1.77735370573 0.0 0.0
-2.0345028205 0.0 0.0
-3.04351260087 0.0 0.0
-3.20721022881 0.0 0.0
-1.93782513758 0.0 0.0
-1.98547167692 0.0 0.0
-2.18060293572 0.0 0.0
-2.45405403924 0.0 0.0
-1.61712137495 0.0 0.0
-2.51136993981 0.0 0.0
-2.21166512551 0.0 0.0
-3.23891733447 0.0 0.0
-3.25480124945 0.0 0.0
-1.9245937582 0.0 0.0
-1.97765000854 0.0 0.0
-2.22239691786 0.0 0.0
-2.42871868246 0.0 0.0
-1.63477873424 0.0 0.0
-2.54634622283 0.0 0.0
-2.22359804381 0.0 0.0
-3.40406185662 0.0 0.0
-3.29879816532 0.0 0.0
-1.97490708764 0.0 0.0
-2.03709702021 0.0 0.0
-2.25852246148 0.0 0.0
-2.47186747248 0.0 0.0
-1.70669311747 0.0 0.0
-2.5194262385 0.0 0.0
-2.36673866029 0.0 0.0
-3.62225382072 0.0 0.0
-3.4257114047 0.0 0.0
-2.03708714721 0.0 0.0
-2.09832058276 0.0 0.0
-2.39406340819 0.0 0.0
-2.51839419767 0.0 0.0
-1.73672564545 0.0 0.0
-2.74779610144 0.0 0.0
-2.17997275608 0.0 0.0
-3.48251904742 0.0 0.0
-3.65176372164 0.0 0.0
-2.11785501685 0.0 0.0
-2.14128743951 0.0 0.0
-2.2754133893 0.0 0.0
-2.77819833436 0.0 0.0
-1.81873340625 0.0 0.0
-2.72536091184 0.0 0.0
-2.69557601045 0.0 0.0
-1.81053017445 0.0 0.0
-2.81113587081 0.0 0.0
-2.09195072661 0.0 0.0
-2.21646313103 0.0 0.0
-2.38815053209 0.0 0.0
-2.747748519 0.0 0.0
-2.02639913372 0.0 0.0
-2.90723440518 0.0 0.0
-1.96262635084 0.0 0.0
-2.10058804016 0.0 0.0
-2.82287972627 0.0 0.0
-3.12034110969 0.0 0.0
-1.93092741711 0.0 0.0
-3.12235135641 0.0 0.0
-2.44473564088 0.0 0.0
-2.47058949579 0.0 0.0
-2.43961994258 0.0 0.0
-2.66899170317 0.0 0.0
-1.78932853139 0.0 0.0
-3.05236693686 0.0 0.0
-2.54677531554 0.0 0.0
-2.99081494934 0.0 0.0
-3.40346944643 0.0 0.0
-2.77330198353 0.0 0.0
-3.84079497054 0.0 0.0
-3.24041812031 0.0 0.0
-4.08953641164 0.0 0.0
1.99307958478 0.0 0.0
1.9723183391 0.0 0.0
1.93771626298 0.0 0.0
1.8892733564 0.0 0.0
1.82698961938 0.0 0.0
1.7508650519 0.0 0.0
1.66089965398 0.0 0.0
1.55709342561 0.0 0.0
1.43944636678 0.0 0.0
1.30795847751 0.0 0.0
1.16262975779 0.0 0.0
1.00346020761 0.0 0.0
0.830449826992 0.0 0.0
0.643598615918 0.0 0.0
0.442906574396 0.0 0.0
0.228373702423 0.0 0.0
1.99826989619 0.0 0.0
1.98442906574 0.0 0.0
1.95674740484 0.0 0.0
1.9152249135 0.0 0.0
1.8598615917 0.0 0.0
1.79065743945 0.0 0.0
1.70761245675 0.0 0.0
1.6107266436 0.0 0.0
1.5 0.0 0.0
1.37543252595 0.0 0.0
1.23702422146 0.0 0.0
1.08477508651 0.0 0.0
0.918685121109 0.0 0.0
0.738754325261 0.0 0.0
0.544982698963 0.0 0.0
0.337370242215 0.0 0.0
0.115916955018 0.0 0.0
1.4597582248 0.0125399276819 0.0
1.45327090479 -0.0113156794599 0.0
1.47896259705 0.00593324045367 0.0
1.46187286695 -0.00392926297731 0.0
1.48604801024 0.00117636990915 0.0
1.46377846959 -0.00226188412937 0.0
1.48080603402 -0.00078254547761 0.0
1.50426575647 0.00164191740926 0.0
1.50506591051 0.00287550257224 0.0
1.52815727488 -0.00237911351273 0.0
1.50943892182 0.00298722108553 0.0
1.52927260218 -0.00337610164077 0.0
1.51371750701 0.00318524629848 0.0
1.52845094656 -0.00381246800406 0.0
1.51736460262 0.00373400651811 0.0
1.48380440946 0.00109046440642 0.0
1.47858701782 -0.00132781097257 0.0
1.44197231137 -0.00377335546399 0.0
1.10753959807 0.00512606661126 0.0
1.10172815322 -0.00431131587575 0.0
1.73482358941 -0.0113037415102 0.0
1.68343930595 0.00578871187942 0.0
1.10116612739 0.00592302109271 0.0
1.09838422514 -0.00556984888569 0.0
1.76093707658 0.00837203143069 0.0
1.0953279348 -0.00122886799506 0.0
1.09370901898 0.00133609797874 0.0
1.09412253856 -0.00449531899306 0.0
1.09430586473 0.00515166312889 0.0
1.76468725575 -0.00594918833978 0.0
1.78482427649 0.000697231714754 0.0
1.08962220785 -0.00409985140552 0.0
1.08901632151 0.00367962458531 0.0
1.08830831883 -0.00426583626076 0.0
1.08782129184 0.0032485830044 0.0
1.08759915351 -0.0040214367677 0.0
1.07545113392 0.00169549260218 0.0
1.07490027014 -0.00236135763829 0.0
1.77944147785 0.00472232894322 0.0
1.76672826555 -0.00234694327204 0.0
1.77575127975 0.00509161096069 0.0
1.75770267244 -0.00110174411725 0.0
1.74877735376 -0.000110489217506 0.0
1.77271074696 0.00539402126956 0.0
1.76352827454 0.0179545865189 0.0
1.72638981528 -0.0207129613278 0.0
1.71976478621 -0.00961144130208 0.0
1.76417013775 0.0132332020027 0.0
1.75444138912 -0.00209611209376 0.0
1.73759680927 0.00470508341114 0.0
1.00488780334 -0.00115763576463 0.0
1.00530482754 0.000225267831528 0.0
1.01777026088 -2.20818476137e-06 0.0
1.02555083435 0.00152682467677 0.0
1.75359456366 0.00248382860475 0.0
1.70780888848 -0.00829597734469 0.0
0.902684047851 0.00157685361622 0.0
0.900620572251 -0.00126383751117 0.0
0.868103084659 0.00234205446806 0.0
0.868641403706 -0.0022086876296 0.0
1.95390897044 0.002960316715 0.0
1.9499592044 0.0040744000745 0.0
1.94331757587 -0.000617500502424 0.0
1.93590572727 0.0113472969339 0.0
0.889684226127 -0.00172377246015 0.0
0.887104878326 0.00215957508045 0.0
0.888230522988 0.000183901295887 0.0
0.884373738635 -0.000161207550803 0.0
0.886377532568 -4.95314914339e-05 0.0
0.881673950581 -0.000666836513529 0.0
0.884431887413 -0.000149757299367 0.0
0.880455277691 -0.00107796082529 0.0
0.882797674266 0.000348147654493 0.0
1.93408525572 -0.00791660329677 0.0
1.94770738205 0.00506169189945 0.0
1.93615505848 -0.000357203475741 0.0
1.93961977538 0.00627895432337 0.0
1.92449073672 -0.000862577063584 0.0
0.873018575122 -0.00221476558989 0.0
0.873913209401 0.00103180373227 0.0
1.87608265728 0.00873680435129 0.0
1.8626381937 0.000541186420951 0.0
1.83266918097 0.00648673111954 0.0
1.80342555106 0.00229880093867 0.0
1.75974467135 0.00538574585585 0.0
1.76758913509 -0.00220033025692 0.0
0.923540085328 0.00120591750639 0.0
0.917929592641 -0.000375720238974 0.0
1.81179900085 0.00615295279948 0.0
1.76370264709 -0.00496167194895 0.0
0.815086189537 -0.00116614822684 0.0
1.85395712781 -0.0143418636595 0.0
1.4387593069 0.0043515427468 0.0
1.43653119489 -0.00136911716425 0.0
1.46873202372 0.00338973079758 0.0
1.46491205716 -0.00355523050856 0.0
1.46738418237 0.00753429203729 0.0
1.51045739549 -0.00560402742232 0.0
1.47452119413 -0.00768403956129 0.0
1.49623631469 -0.00508384459455 0.0
1.51282197208 0.00447202334775 0.0
1.50670507626 0.00861154823203 0.0
1.48559205501 -0.00859864195988 0.0
1.49867049041 0.0101701147364 0.0
1.47582342308 -0.0114015635147 0.0
1.49071170831 -0.00498823112615 0.0
1.51154889243 0.0051127593486 0.0
1.48861728479 -0.00491095097111 0.0
1.51191907546 0.00596984007947 0.0
1.46682632789 0.00122262498522 0.0
1.48145804865 0.000112843383883 0.0
1.7819962812 -0.0220661527328 0.0
1.91811530882 0.0337755523326 0.0
1.91492143075 -0.00912625574318 0.0
1.89107104058 0.0144852452465 0.0
1.92878085864 -0.0107726152621 0.0
1.88481015295 0.0145703689333 0.0
1.94057333401 -0.00870880530659 0.0
1.86825555904 0.0115821548583 0.0
1.94550394778 -0.00409348361769 0.0
1.89718344186 -0.00545508247404 0.0
2.00000597506 0.00666205353112 0.0
2.05847749668 -0.000975825160858 0.0
1.93265092063 0.013507293584 0.0
0.691909485882 0.00147067003858 0.0
0.692634448259 -0.000961664583459 0.0
0.666382738611 -0.000142198936953 0.0
0.670112801207 0.00041505134225 0.0
0.667755289037 0.00116965495844 0.0
0.670191958922 -0.000706717196032 0.0
0.675642910722 0.000741524325918 0.0
0.674487015837 -0.000748874520324 0.0
0.667521068226 -0.00106403231204 0.0
0.661744244444 0.00141225357658 0.0
0.672288156081 -0.0012531940854 0.0
0.666967169421 0.00222991529905 0.0
0.664415031214 -0.00191004928374 0.0
0.657966200791 0.00146609112269 0.0
0.667356020596 0.00102720553973 0.0
0.660956104554 -0.00125641325249 0.0
0.662180238305 -0.00204135003555 0.0
0.65726216354 0.00111514288735 0.0
0.670701750054 -0.00212986323916 0.0
0.667017926901 0.00209554208309 0.0
0.665406828702 0.00161851572768 0.0
0.659441462867 -0.00152072721232 0.0
0.660859783728 -0.00138492350064 0.0
0.663910109162 0.00128468668506 0.0
0.66085963701 -0.00100378160377 0.0
0.664324540673 0.00129812351996 0.0
1.90107207781 0.0139207138861 0.0
1.42280276098 0.0082969376772 0.0
1.41233431524 -0.00747979419961 0.0
1.93622527064 -0.00782412229424 0.0
1.43142065977 0.00678229535403 0.0
1.41274293179 -0.00568251776713 0.0
1.46076224683 0.00367394203724 0.0
1.44325934933 -0.00353037445118 0.0
1.44444915595 0.00248032881911 0.0
1.43006664296 -0.0032868979512 0.0
1.44034402209 -0.00415943854573 0.0
1.45842945109 0.00374787164534 0.0
1.45213547827 -0.00149582218371 0.0
1.43307002104 -0.00289769350654 0.0
1.44458650149 0.00111424751557 0.0
1.43316193734 -0.00451615742205 0.0
1.44749399555 0.00581737315569 0.0
0.634068639742 -0.000580597159633 0.0
0.635465290344 0.000350582339994 0.0
1.97297383066 0.0332288216371 0.0
2.12940974312 -0.0283706431466 0.0
0.695926629204 0.00455797191356 0.0
0.69639496353 0.000472434413265 0.0
0.663422856733 -0.00291067159161 0.0
0.661928977494 0.00332375467143 0.0
1.85750662988 -0.0393147226843 0.0
1.99115253882 0.0462682749978 0.0
1.83416030335 -0.0141801857387 0.0
1.92982736879 0.0264268833902 0.0