# vtk DataFile Version 2.0
2D Simulation Python
ASCII
DATASET UNSTRUCTURED_GRID
FIELD FieldData 1
NODES 1 2 int
2790 1289

POINTS 2790 double
0.0 1.0 0.0
1.725 1.0 0.0
8.275 1.0 0.0
20.0 1.0 0.0
20.0 0.0 0.0
0.0 0.0 0.0
0.1916666666663293 1.0 0.0
0.3833333333324708 1.0 0.0
0.574999999998553 1.0 0.0
0.7666666666645966 1.0 0.0
0.9583333333312576 1.0 0.0
1.149999999998384 1.0 0.0
1.341666666665662 1.0 0.0
1.533333333332819 1.0 0.0
0.0958333333331406 1.0 0.0
0.2874999999994247 1.0 0.0
0.4791666666655395 1.0 0.0
0.6708333333315728 1.0 0.0
0.8624999999976626 1.0 0.0
1.054166666664886 1.0 0.0
1.245833333332057 1.0 0.0
1.437499999999343 1.0 0.0
1.629166666666455 1.0 0.0
1.92348484848444 1.0 0.0
2.121969696968978 1.0 0.0
2.320454545453434 1.0 0.0
2.518939393937826 1.0 0.0
2.717424242422235 1.0 0.0
2.915909090906411 1.0 0.0
3.1143939393908 1.0 0.0
3.312878787875129 1.0 0.0
3.511363636359531 1.0 0.0
3.709848484843827 1.0 0.0
3.90833333332816 1.0 0.0
4.106818181812215 1.0 0.0
4.305303030296804 1.0 0.0
4.503787878781365 1.0 0.0
4.702272727265711 1.0 0.0
4.900757575750005 1.0 0.0
5.099242424235156 1.0 0.0
5.297727272720327 1.0 0.0
5.496212121205663 1.0 0.0
5.694696969690998 1.0 0.0
5.89318181817668 1.0 0.0
6.09166666666213 1.0 0.0
6.290151515147423 1.0 0.0
6.488636363633031 1.0 0.0
6.687121212118713 1.0 0.0
6.885606060604342 1.0 0.0
7.084090909089381 1.0 0.0
7.282575757574369 1.0 0.0
7.481060606059355 1.0 0.0
7.679545454544343 1.0 0.0
7.878030303029329 1.0 0.0
8.076515151514705 1.0 0.0
1.824242424242199 1.0 0.0
2.022727272726695 1.0 0.0
2.221212121211181 1.0 0.0
2.41969696969563 1.0 0.0
2.618181818180092 1.0 0.0
2.816666666664316 1.0 0.0
3.015151515148624 1.0 0.0
3.213636363633039 1.0 0.0
3.412121212117267 1.0 0.0
3.610606060601583 1.0 0.0
3.809090909085975 1.0 0.0
4.007575757570153 1.0 0.0
4.206060606054539 1.0 0.0
4.404545454539001 1.0 0.0
4.603030303023853 1.0 0.0
4.801515151507715 1.0 0.0
4.999999999992074 1.0 0.0
5.198484848477777 1.0 0.0
5.396969696963081 1.0 0.0
5.595454545448261 1.0 0.0
5.793939393933949 1.0 0.0
5.992424242419331 1.0 0.0
6.190909090904785 1.0 0.0
6.389393939390224 1.0 0.0
6.587878787875795 1.0 0.0
6.786363636361617 1.0 0.0
6.984848484846598 1.0 0.0
7.183333333331875 1.0 0.0
7.381818181816625 1.0 0.0
7.580303030301849 1.0 0.0
7.778787878786936 1.0 0.0
7.977272727272114 1.0 0.0
8.175757575757618 1.0 0.0
8.473728813558951 1.0 0.0
8.672457627118133 1.0 0.0
8.871186440676855 1.0 0.0
9.069915254236154 1.0 0.0
9.268644067794812 1.0 0.0
9.467372881354057 1.0 0.0
9.666101694912944 1.0 0.0
9.864830508471961 1.0 0.0
10.06355932203108 1.0 0.0
10.26228813558986 1.0 0.0
10.46101694914916 1.0 0.0
10.65974576270777 1.0 0.0
10.85847457626706 1.0 0.0
11.05720338982589 1.0 0.0
11.25593220338497 1.0 0.0
11.45466101694402 1.0 0.0
11.65338983050287 1.0 0.0
11.85211864406215 1.0 0.0
12.05084745762035 1.0 0.0
12.24957627117938 1.0 0.0
12.44830508473794 1.0 0.0
12.64703389829659 1.0 0.0
12.84576271185557 1.0 0.0
13.04449152541379 1.0 0.0
13.24322033897301 1.0 0.0
13.44194915253121 1.0 0.0
13.6406779660903 1.0 0.0
13.83940677964874 1.0 0.0
14.03813559320751 1.0 0.0
14.23686440676681 1.0 0.0
14.43559322032663 1.0 0.0
14.63432203388679 1.0 0.0
14.8330508474463 1.0 0.0
15.0317796610067 1.0 0.0
15.23050847456608 1.0 0.0
15.42923728812645 1.0 0.0
15.62796610168606 1.0 0.0
15.82669491524602 1.0 0.0
16.02542372880584 1.0 0.0
16.22415254236431 1.0 0.0
16.42288135592496 1.0 0.0
16.62161016948498 1.0 0.0
16.82033898304518 1.0 0.0
17.01906779660567 1.0 0.0
17.2177966101654 1.0 0.0
17.41652542372565 1.0 0.0
17.61525423728425 1.0 0.0
17.81398305084494 1.0 0.0
18.01271186440355 1.0 0.0
18.21144067796387 1.0 0.0
18.41016949152309 1.0 0.0
18.6088983050827 1.0 0.0
18.80762711864282 1.0 0.0
19.00635593220153 1.0 0.0
19.20508474576211 1.0 0.0
19.40381355932072 1.0 0.0
19.60254237288117 1.0 0.0
19.80127118644013 1.0 0.0
8.374364406779554 1.0 0.0
8.573093220338519 1.0 0.0
8.771822033897509 1.0 0.0
8.970550847456504 1.0 0.0
9.169279661015429 1.0 0.0
9.368008474574502 1.0 0.0
9.566737288133496 1.0 0.0
9.765466101692677 1.0 0.0
9.964194915251602 1.0 0.0
10.16292372881015 1.0 0.0
10.36165254236967 1.0 0.0
10.56038135592849 1.0 0.0
10.75911016948728 1.0 0.0
10.95783898304648 1.0 0.0
11.15656779660554 1.0 0.0
11.35529661016447 1.0 0.0
11.55402542372345 1.0 0.0
11.75275423728253 1.0 0.0
11.95148305084111 1.0 0.0
12.15021186439983 1.0 0.0
12.34894067795883 1.0 0.0
12.54766949151722 1.0 0.0
12.74639830507616 1.0 0.0
12.94512711863486 1.0 0.0
13.14385593219357 1.0 0.0
13.34258474575207 1.0 0.0
13.54131355931069 1.0 0.0
13.7400423728695 1.0 0.0
13.93877118642822 1.0 0.0
14.13749999998697 1.0 0.0
14.33622881354686 1.0 0.0
14.53495762710678 1.0 0.0
14.73368644066656 1.0 0.0
14.93241525422655 1.0 0.0
15.13114406778625 1.0 0.0
15.32987288134641 1.0 0.0
15.52860169490635 1.0 0.0
15.7273305084661 1.0 0.0
15.9260593220261 1.0 0.0
16.12478813558534 1.0 0.0
16.32351694914468 1.0 0.0
16.52224576270527 1.0 0.0
16.72097457626511 1.0 0.0
16.91970338982543 1.0 0.0
17.11843220338561 1.0 0.0
17.31716101694539 1.0 0.0
17.51588983050497 1.0 0.0
17.71461864406449 1.0 0.0
17.91334745762401 1.0 0.0
18.11207627118383 1.0 0.0
18.31080508474307 1.0 0.0
18.50953389830311 1.0 0.0
18.70826271186271 1.0 0.0
18.90699152542239 1.0 0.0
19.10572033898203 1.0 0.0
19.30444915254171 1.0 0.0
19.50317796610107 1.0 0.0
19.70190677966065 1.0 0.0
19.90063559322003 1.0 0.0
20.0 0.7999999999999998 0.0
20.0 0.6000000000013869 0.0
20.0 0.4000000000016644 0.0
20.0 0.2000000000008322 0.0
20.0 0.9000000000000369 0.0
20.0 0.7000000000005904 0.0
20.0 0.5000000000017577 0.0
20.0 0.3000000000012483 0.0
20.0 0.1000000000004161 0.0
19.8 0.0 0.0
19.6 0.0 0.0
19.4 0.0 0.0
19.2 0.0 0.0
19.0 0.0 0.0
18.8 0.0 0.0
18.6 0.0 0.0
18.4 0.0 0.0
18.2 0.0 0.0
18.0 0.0 0.0
17.8 0.0 0.0
17.59999999999999 0.0 0.0
17.4 0.0 0.0
17.2 0.0 0.0
16.99999999999999 0.0 0.0
16.79999999999999 0.0 0.0
16.59999999999999 0.0 0.0
16.4 0.0 0.0
16.2 0.0 0.0
15.99999999999999 0.0 0.0
15.79999999999999 0.0 0.0
15.59999999999999 0.0 0.0
15.4 0.0 0.0
15.2 0.0 0.0
15.0 0.0 0.0
14.79999999999999 0.0 0.0
14.59999999999999 0.0 0.0
14.4 0.0 0.0
14.2 0.0 0.0
13.99999999999999 0.0 0.0
13.8 0.0 0.0
13.59999999999999 0.0 0.0
13.4 0.0 0.0
13.2 0.0 0.0
13.0 0.0 0.0
12.79999999999999 0.0 0.0
12.6 0.0 0.0
12.4 0.0 0.0
12.2 0.0 0.0
11.99999999999999 0.0 0.0
11.8 0.0 0.0
11.6 0.0 0.0
11.4 0.0 0.0
11.2 0.0 0.0
11.0 0.0 0.0
10.8 0.0 0.0
10.6 0.0 0.0
10.4 0.0 0.0
10.2 0.0 0.0
9.999999999999998 0.0 0.0
9.799999999999995 0.0 0.0
9.599999999999998 0.0 0.0
9.399999999999997 0.0 0.0
9.199999999999998 0.0 0.0
8.999999999999996 0.0 0.0
8.799999999999997 0.0 0.0
8.599999999999996 0.0 0.0
8.399999999999999 0.0 0.0
8.199999999999996 0.0 0.0
7.999999999999998 0.0 0.0
7.799999999999997 0.0 0.0
7.599999999999998 0.0 0.0
7.399999999999999 0.0 0.0
7.199999999999998 0.0 0.0
6.999999999999995 0.0 0.0
6.799999999999995 0.0 0.0
6.599999999999998 0.0 0.0
6.399999999999997 0.0 0.0
6.199999999999996 0.0 0.0
5.999999999999998 0.0 0.0
5.799999999999999 0.0 0.0
5.599999999999996 0.0 0.0
5.399999999999995 0.0 0.0
5.199999999999996 0.0 0.0
4.999999999999998 0.0 0.0
4.799999999999997 0.0 0.0
4.599999999999998 0.0 0.0
4.399999999999999 0.0 0.0
4.199999999999999 0.0 0.0
3.999999999999996 0.0 0.0
3.799999999999997 0.0 0.0
3.599999999999998 0.0 0.0
3.399999999999999 0.0 0.0
3.199999999999999 0.0 0.0
3.0 0.0 0.0
2.800000000000001 0.0 0.0
2.599999999999998 0.0 0.0
2.399999999999999 0.0 0.0
2.199999999999996 0.0 0.0
1.999999999999996 0.0 0.0
1.800000000000001 0.0 0.0
1.599999999999998 0.0 0.0
1.399999999999999 0.0 0.0
1.200000000000003 0.0 0.0
1.0 0.0 0.0
0.7999999999999972 0.0 0.0
0.5999999999999979 0.0 0.0
0.3999999999999986 0.0 0.0
0.1999999999999993 0.0 0.0
19.90000000000022 0.0 0.0
19.69999999999997 0.0 0.0
19.49999999999987 0.0 0.0
19.30000000000005 0.0 0.0
19.09999999999999 0.0 0.0
18.89999999999987 0.0 0.0
18.7 0.0 0.0
18.49999999999999 0.0 0.0
18.30000000000001 0.0 0.0
18.09999999999987 0.0 0.0
17.90000000000013 0.0 0.0
17.7 0.0 0.0
17.49999999999987 0.0 0.0
17.30000000000025 0.0 0.0
17.10000000000001 0.0 0.0
16.90000000000005 0.0 0.0
16.70000000000003 0.0 0.0
16.50000000000006 0.0 0.0
16.29999999999997 0.0 0.0
16.09999999999999 0.0 0.0
15.89999999999987 0.0 0.0
15.69999999999999 0.0 0.0
15.49999999999999 0.0 0.0
15.3 0.0 0.0
15.10000000000003 0.0 0.0
14.90000000000005 0.0 0.0
14.69999999999992 0.0 0.0
14.49999999999996 0.0 0.0
14.29999999999999 0.0 0.0
14.10000000000008 0.0 0.0
13.89999999999988 0.0 0.0
13.70000000000003 0.0 0.0
13.50000000000004 0.0 0.0
13.29999999999992 0.0 0.0
13.09999999999995 0.0 0.0
12.90000000000016 0.0 0.0
12.7 0.0 0.0
12.49999999999986 0.0 0.0
12.30000000000003 0.0 0.0
12.10000000000016 0.0 0.0
11.90000000000005 0.0 0.0
11.69999999999994 0.0 0.0
11.49999999999993 0.0 0.0
11.30000000000005 0.0 0.0
11.0999999999999 0.0 0.0
10.90000000000004 0.0 0.0
10.69999999999995 0.0 0.0
10.50000000000012 0.0 0.0
10.29999999999999 0.0 0.0
10.09999999999993 0.0 0.0
9.900000000000077 0.0 0.0
9.699999999999969 0.0 0.0
9.499999999999982 0.0 0.0
9.299999999999969 0.0 0.0
9.100000000000108 0.0 0.0
8.899999999999972 0.0 0.0
8.699999999999958 0.0 0.0
8.499999999999998 0.0 0.0
8.30000000000003 0.0 0.0
8.099999999999977 0.0 0.0
7.899999999999974 0.0 0.0
7.700000000000166 0.0 0.0
7.499999999999854 0.0 0.0
7.299999999999997 0.0 0.0
7.100000000000019 0.0 0.0
6.900000000000002 0.0 0.0
6.699999999999974 0.0 0.0
6.500000000000037 0.0 0.0
6.299999999999981 0.0 0.0
6.100000000000014 0.0 0.0
5.899999999999949 0.0 0.0
5.700000000000049 0.0 0.0
5.499999999999956 0.0 0.0
5.300000000000118 0.0 0.0
5.100000000000005 0.0 0.0
4.900000000000109 0.0 0.0
4.699999999999982 0.0 0.0
4.499999999999936 0.0 0.0
4.300000000000137 0.0 0.0
4.100000000000012 0.0 0.0
3.899999999999888 0.0 0.0
3.69999999999974 0.0 0.0
3.500000000000046 0.0 0.0
3.299999999999965 0.0 0.0
3.099999999999817 0.0 0.0
2.900000000000066 0.0 0.0
2.699999999999793 0.0 0.0
2.500000000000064 0.0 0.0
2.299999999999823 0.0 0.0
[...]
POINT_DATA 2790
VECTORS vector double
1.0 0.0 0.0
0.0 0.0 0.0
0.0 0.0 0.0
0.0 0.0 0.0
1.53675096937 0.0 0.0
1.0 0.0 0.0
0.0 0.0 0.0
0.0 0.0 0.0
0.0 0.0 0.0
0.0 0.0 0.0
0.0 0.0 0.0
0.0 0.0 0.0
0.0 0.0 0.0
0.0 0.0 0.0
0.0 0.0 0.0
0.0 0.0 0.0
0.0 0.0 0.0
0.0 0.0 0.0
0.0 0.0 0.0
0.0 0.0 0.0
0.0 0.0 0.0
0.0 0.0 0.0
0.0 0.0 0.0
0.0 0.0 0.0
0.0 0.0 0.0
0.0 0.0 0.0
0.0 0.0 0.0
0.0 0.0 0.0
0.0 0.0 0.0
0.0 0.0 0.0
0.0 0.0 0.0
0.0 0.0 0.0
0.0 0.0 0.0
0.0 0.0 0.0
0.0 0.0 0.0
0.0 0.0 0.0
0.0 0.0 0.0
0.0 0.0 0.0
0.0 0.0 0.0
0.0 0.0 0.0
0.0 0.0 0.0
0.0 0.0 0.0
0.0 0.0 0.0
0.0 0.0 0.0
0.0 0.0 0.0
0.0 0.0 0.0
0.0 0.0 0.0
0.0 0.0 0.0
0.0 0.0 0.0
0.0 0.0 0.0
0.0 0.0 0.0
0.0 0.0 0.0
0.0 0.0 0.0
0.0 0.0 0.0
0.0 0.0 0.0
0.0 0.0 0.0
0.0 0.0 0.0
0.0 0.0 0.0
0.0 0.0 0.0
0.0 0.0 0.0
0.0 0.0 0.0
0.0 0.0 0.0
0.0 0.0 0.0
0.0 0.0 0.0
0.0 0.0 0.0
0.0 0.0 0.0
0.0 0.0 0.0
0.0 0.0 0.0
0.0 0.0 0.0
0.0 0.0 0.0
0.0 0.0 0.0
0.0 0.0 0.0
0.0 0.0 0.0
0.0 0.0 0.0
0.0 0.0 0.0
0.0 0.0 0.0
0.0 0.0 0.0
0.0 0.0 0.0
0.0 0.0 0.0
0.0 0.0 0.0
0.0 0.0 0.0
0.0 0.0 0.0
0.0 0.0 0.0
0.0 0.0 0.0
0.0 0.0 0.0
0.0 0.0 0.0
0.0 0.0 0.0
0.0 0.0 0.0
0.0 0.0 0.0
0.0 0.0 0.0
0.0 0.0 0.0
0.0 0.0 0.0
0.0 0.0 0.0
0.0 0.0 0.0
0.0 0.0 0.0
0.0 0.0 0.0
0.0 0.0 0.0
0.0 0.0 0.0
0.0 0.0 0.0
0.0 0.0 0.0
0.0 0.0 0.0
0.0 0.0 0.0
0.0 0.0 0.0
0.0 0.0 0.0
0.0 0.0 0.0
0.0 0.0 0.0
0.0 0.0 0.0
0.0 0.0 0.0
0.0 0.0 0.0
0.0 0.0 0.0
0.0 0.0 0.0
0.0 0.0 0.0
0.0 0.0 0.0
0.0 0.0 0.0
0.0 0.0 0.0
0.0 0.0 0.0
0.0 0.0 0.0
0.0 0.0 0.0
0.0 0.0 0.0
0.0 0.0 0.0
0.0 0.0 0.0
0.0 0.0 0.0
0.0 0.0 0.0
0.0 0.0 0.0
0.0 0.0 0.0
0.0 0.0 0.0
0.0 0.0 0.0
0.0 0.0 0.0
0.0 0.0 0.0
0.0 0.0 0.0
0.0 0.0 0.0
0.0 0.0 0.0
0.0 0.0 0.0
0.0 0.0 0.0
0.0 0.0 0.0
0.0 0.0 0.0
0.0 0.0 0.0
0.0 0.0 0.0
0.0 0.0 0.0
0.0 0.0 0.0
0.0 0.0 0.0
0.0 0.0 0.0
0.0 0.0 0.0
0.0 0.0 0.0
0.0 0.0 0.0
0.0 0.0 0.0
0.0 0.0 0.0
0.0 0.0 0.0
0.0 0.0 0.0
0.0 0.0 0.0
0.0 0.0 0.0
0.0 0.0 0.0
0.0 0.0 0.0
0.0 0.0 0.0
0.0 0.0 0.0
0.0 0.0 0.0
0.0 0.0 0.0
0.0 0.0 0.0
0.0 0.0 0.0
0.0 0.0 0.0
0.0 0.0 0.0
0.0 0.0 0.0
0.0 0.0 0.0
0.0 0.0 0.0
0.0 0.0 0.0
0.0 0.0 0.0
0.0 0.0 0.0
0.0 0.0 0.0
0.0 0.0 0.0
0.0 0.0 0.0
0.0 0.0 0.0
0.0 0.0 0.0
0.0 0.0 0.0
0.0 0.0 0.0
0.0 0.0 0.0
0.0 0.0 0.0
0.0 0.0 0.0
0.0 0.0 0.0
0.0 0.0 0.0
0.0 0.0 0.0
0.0 0.0 0.0
0.0 0.0 0.0
0.0 0.0 0.0
0.0 0.0 0.0
0.0 0.0 0.0
0.0 0.0 0.0
0.0 0.0 0.0
0.0 0.0 0.0
0.0 0.0 0.0
0.0 0.0 0.0
0.0 0.0 0.0
0.0 0.0 0.0
0.0 0.0 0.0
0.0 0.0 0.0
0.0 0.0 0.0
0.0 0.0 0.0
0.0 0.0 0.0
0.0 0.0 0.0
0.0 0.0 0.0
0.0 0.0 0.0
0.0 0.0 0.0
0.0 0.0 0.0
0.0 0.0 0.0
0.0 0.0 0.0
0.0 0.0 0.0
0.561548623707 -2.78494094616e-05 0.0
0.977950111262 3.74774204911e-05 0.0
1.25661038736 1.63098463496e-06 0.0
1.42563079594 -5.74298037654e-05 0.0
0.287339818869 0.000214465989411 0.0
0.774733242094 0.0012350583487 0.0
1.12202564633 -1.3183461428e-05 0.0
1.34315894217 -0.000691802800765 0.0
1.47950743333 -0.000229336007066 0.0
1.5361342381 0.0 0.0
1.53670578434 0.0 0.0
1.5371124923 0.0 0.0
1.53760616917 0.0 0.0
1.53719230091 0.0 0.0
1.53814074303 0.0 0.0
1.53837459887 0.0 0.0
1.53794045899 0.0 0.0
1.53844861806 0.0 0.0
1.5384592274 0.0 0.0
1.53798340064 0.0 0.0
1.53849396883 0.0 0.0
1.53849772334 0.0 0.0
1.53786265735 0.0 0.0
1.53694773962 0.0 0.0
1.53694079683 0.0 0.0
1.53772523747 0.0 0.0
1.5367244741 0.0 0.0
1.5363744501 0.0 0.0
1.53659712877 0.0 0.0
1.53476675592 0.0 0.0
1.53330096029 0.0 0.0
1.53236801006 0.0 0.0
1.52941993566 0.0 0.0
1.52700686222 0.0 0.0
1.52549317422 0.0 0.0
1.52222226377 0.0 0.0
1.51975755108 0.0 0.0
1.51830846579 0.0 0.0
1.51505576805 0.0 0.0
1.51257387413 0.0 0.0
1.51103608085 0.0 0.0
1.5075791788 0.0 0.0
1.50484691369 0.0 0.0
1.50305325445 0.0 0.0
1.49926669372 0.0 0.0
1.49622162016 0.0 0.0
1.49415813681 0.0 0.0
1.48965128475 0.0 0.0
1.48603814151 0.0 0.0
1.48364032564 0.0 0.0
1.47916509977 0.0 0.0
1.47517946522 0.0 0.0
1.47241721946 0.0 0.0
1.46751716172 0.0 0.0
1.46311251099 0.0 0.0
1.45998154822 0.0 0.0
1.45464587695 0.0 0.0
1.44985618474 0.0 0.0
1.44638926627 0.0 0.0
1.44071838951 0.0 0.0
1.43546036126 0.0 0.0
1.43160790891 0.0 0.0
1.42853817283 0.0 0.0
1.42197178125 0.0 0.0
1.41532924021 0.0 0.0
1.40976175032 0.0 0.0
1.40498431679 0.0 0.0
1.39870525169 0.0 0.0
1.39303294709 0.0 0.0
1.38863864346 0.0 0.0
1.38210176316 0.0 0.0
1.37599063603 0.0 0.0
1.37132640619 0.0 0.0
1.36443218504 0.0 0.0
1.35802164687 0.0 0.0
1.35308132327 0.0 0.0
1.345915709 0.0 0.0
1.33915156401 0.0 0.0
1.33369258675 0.0 0.0
1.32849585931 0.0 0.0
1.32021901848 0.0 0.0
1.31331275018 0.0 0.0
1.30560226423 0.0 0.0
1.29716621113 0.0 0.0
1.28998594448 0.0 0.0
1.28091522882 0.0 0.0
1.27200624912 0.0 0.0
1.26395038071 0.0 0.0
1.2560664888 0.0 0.0
1.24680924526 0.0 0.0
1.23804293301 0.0 0.0
1.22931268198 0.0 0.0
1.21954941223 0.0 0.0
1.20992738293 0.0 0.0
1.2001591905 0.0 0.0
1.18971758124 0.0 0.0
1.17905615191 0.0 0.0
1.16792473762 0.0 0.0
1.15627753482 0.0 0.0
1.14386864027 0.0 0.0
1.13060187196 0.0 0.0
1.11643821534 0.0 0.0
1.10042889106 0.0 0.0
1.08274265147 0.0 0.0
1.06297453214 0.0 0.0
1.04142938493 0.0 0.0
1.02019831129 0.0 0.0
1.0032097061 0.0 0.0
1.53575799706 0.0 0.0
1.53536699242 0.0 0.0
1.53708760637 0.0 0.0
1.53601523567 0.0 0.0
1.5363217418 0.0 0.0
1.53685082399 0.0 0.0
1.53854201692 0.0 0.0
1.53723164867 0.0 0.0
1.53719129413 0.0 0.0
1.53864857245 0.0 0.0
1.53728762045 0.0 0.0
1.53720972546 0.0 0.0
1.53868290768 0.0 0.0
1.53726187403 0.0 0.0
1.53722130205 0.0 0.0
1.53610212611 0.0 0.0
1.53717993296 0.0 0.0
1.53708777566 0.0 0.0
1.53567017597 0.0 0.0
1.53633641776 0.0 0.0
1.53548688684 0.0 0.0
1.53311321836 0.0 0.0
1.53267067226 0.0 0.0
1.53061245998 0.0 0.0
1.52718740752 0.0 0.0
1.52604398702 0.0 0.0
1.52355879453 0.0 0.0
1.5199274795 0.0 0.0
1.51882257043 0.0 0.0
1.51640491837 0.0 0.0
1.51275779524 0.0 0.0
1.5116079655 0.0 0.0
1.50903021041 0.0 0.0
1.50514045271 0.0 0.0
1.50376190221 0.0 0.0
1.50088810135 0.0 0.0
1.49669894049 0.0 0.0
1.49496897639 0.0 0.0
1.49163165673 0.0 0.0
1.48682087809 0.0 0.0
1.48430243188 0.0 0.0
1.48129376638 0.0 0.0
1.4761666006 0.0 0.0
1.47325845159 0.0 0.0
1.46985036359 0.0 0.0
1.46427122858 0.0 0.0
1.4609928988 0.0 0.0
1.45718172861 0.0 0.0
1.45116836442 0.0 0.0
1.44755137242 0.0 0.0
1.44345726331 0.0 0.0
1.43702629027 0.0 0.0
1.43299364292 0.0 0.0
1.42866029626 0.0 0.0
1.42425211437 0.0 0.0
1.41819701357 0.0 0.0
1.41148339029 0.0 0.0
1.40688120493 0.0 0.0
1.40173233634 0.0 0.0
1.39497002832 0.0 0.0
1.39032670071 0.0 0.0
1.3853304922 0.0 0.0
1.37801325899 0.0 0.0
1.37314313644 0.0 0.0
1.36781642469 0.0 0.0
1.36022905878 0.0 0.0
1.35503800881 0.0 0.0
1.34944575664 0.0 0.0
1.34162755229 0.0 0.0
1.33604768068 0.0 0.0
1.32987250559 0.0 0.0
1.32344145962 0.0 0.0
1.31613833063 0.0 0.0
1.30880451777 0.0 0.0
1.30082232902 0.0 0.0
1.29298497173 0.0 0.0
1.28420602463 0.0 0.0
1.27603887319 0.0 0.0
1.26747268758 0.0 0.0
1.25992268793 0.0 0.0
1.25095567691 0.0 0.0
1.24201375407 0.0 0.0
1.23356679227 0.0 0.0
1.22407270395 0.0 0.0
1.21449585365 0.0 0.0
1.20493080091 0.0 0.0
1.19472532932 0.0 0.0
1.18432940227 0.0 0.0
1.17341229812 0.0 0.0
1.1620537981 0.0 0.0
1.15020788681 0.0 0.0
1.13719221686 0.0 0.0
1.12365145737 0.0 0.0
1.10871994579 0.0 0.0
1.09153634391 0.0 0.0
1.07299268088 0.0 0.0
1.05241773801 0.0 0.0
1.03067833565 0.0 0.0
1.01084269966 0.0 0.0
0.998716962438 0.0 0.0
1.0 0.0 0.0
1.0 0.0 0.0
1.0 0.0 0.0
1.0 0.0 0.0
1.0 0.0 0.0
1.0 0.0 0.0
1.0 0.0 0.0
1.0 0.0 0.0
1.0 0.0 0.0
1.17089186577 -0.0709236424118 0.0
1.22493723405 -0.046059770709 0.0
1.22623356307 -0.0309917844916 0.0
1.09047060456 0.000155701323144 0.0
1.12639990067 6.70430291912e-05 0.0
1.12537015725 -3.67744478289e-06 0.0
1.1223350321 8.73336010419e-05 0.0
1.12013450007 0.000102810868681 0.0
1.11999768872 -2.17000106889e-05 0.0
1.12006655785 -0.000438361310411 0.0
1.12108399898 -0.00105397962056 0.0
1.12277431188 -0.00144919838007 0.0
1.12459908918 -0.00160498372708 0.0
1.12652408408 -0.0017400807881 0.0
1.12869641296 -0.00190906420168 0.0
1.0830690452 -0.00191594941743 0.0
1.08622900799 -0.00212244570794 0.0
1.08993815881 -0.00245396801668 0.0
1.09413218107 -0.00284708144685 0.0
1.15111222301 -0.00437775166999 0.0
1.21688039755 -0.0227431526835 0.0
1.12124886751 -0.00443121802092 0.0
1.09885052974 -0.00314440850515 0.0
1.20222398545 -0.0174319645303 0.0
1.12876736036 -0.00500097861446 0.0
1.14156049706 -0.00392075550983 0.0
1.18789498991 -0.0138056739814 0.0
1.13733299586 -0.00545242396627 0.0
1.17472425149 -0.0112855091302 0.0
1.17620716555 -0.00678153483406 0.0
1.18789656619 -0.0105463707671 0.0
1.14840033885 -0.00442030731046 0.0
1.16400663923 -0.00983871754103 0.0
0.887830128514 -0.000581726250754 0.0
1.21678461784 -0.153156756764 0.0
1.29218013365 -0.0109157101238 0.0
1.28076719644 -0.0127836242566 0.0
1.30932514915 -0.00730545209264 0.0
1.26706338207 -0.0150606880851 0.0
1.30970847599 -0.00656682478585 0.0
1.21922556219 -0.0215462594544 0.0
1.24749548092 -0.0179078247465 0.0
1.31170134404 -0.00603437152229 0.0
1.31302305212 -0.00541905636 0.0
1.31536395997 -0.00459958220253 0.0
1.31591764045 -0.0041214990621 0.0
1.31606573517 -0.00374698398373 0.0
1.31604648868 -0.00326020660922 0.0
1.31589685078 -0.00286170362976 0.0
1.30666450366 -0.00257742341468 0.0
1.30645241776 -0.00227131797277 0.0
1.30641866628 -0.00206303787374 0.0
1.20134254912 -0.0512975725708 0.0
1.3063228601 -0.00193785549606 0.0
1.30599407111 -0.00175364286072 0.0
1.30523623344 -0.00115119460871 0.0
1.17884119698 -0.0266126774966 0.0
1.30464873984 -0.000365852888877 0.0
1.12851997945 -0.0278038879607 0.0
1.13139004619 -0.0347352274246 0.0
1.30285105409 2.87322412924e-05 0.0
1.30299895508 -3.66488862144e-05 0.0
0.844427831491 -8.31520390083e-05 0.0
1.30287430373 5.67079315478e-05 0.0
0.84397828612 -0.000326672775486 0.0
0.961000819138 -0.0069780511668 0.0
0.980980222405 -0.0083382822642 0.0
0.92003368599 -0.00311822842284 0.0
1.07556571183 -0.0188291845084 0.0
1.00509035748 -0.0105891630796 0.0
0.907943969146 -0.00339804130311 0.0
1.03564418514 -0.0139646499348 0.0
0.897740202816 -0.00314680704061 0.0
0.888384653212 -0.00263249944253 0.0
0.880764012692 -0.00207360667082 0.0
0.874637893041 -0.00217155676347 0.0
0.86911400302 -0.0019008049071 0.0
0.864215411144 -0.00162939358239 0.0
0.859955834925 -0.00141978043186 0.0
0.856263589411 -0.00117382713996 0.0
0.852903437689 -0.00111641507787 0.0
0.849936663068 -0.00102783173386 0.0
0.847196290736 -0.000952527964189 0.0
0.844819706098 -0.000788464650831 0.0
0.843188189996 -0.000466139538619 0.0
1.30702952751 -4.74579328941e-05 0.0
0.842527959371 -0.000159225255887 0.0
0.842469048557 -2.05013073505e-05 0.0
0.842644569423 2.72131127699e-05 0.0
0.842837308554 2.22132431992e-05 0.0
1.32290719443 0.000224100182326 0.0
1.03732506738 -0.0388215095818 0.0
1.32763037319 0.000503859540435 0.0
1.31544618644 -0.00507874344616 0.0
1.31148291602 -0.00848955701886 0.0
1.30321452056 -0.00979972178528 0.0
1.32708359702 -0.0053587001345 0.0
0.824890100314 -0.00332938106942 0.0
0.865198975261 -0.00218897974729 0.0
0.880802140569 -0.00335904306924 0.0
0.890411466014 -0.00758973362829 0.0
1.16552285357 -0.0715040280061 0.0
1.02085654428 -0.0265223315593 0.0
1.32960875534 -3.64168456747e-05 0.0
1.37926491491 -0.002525059485 0.0
1.37688068182 -0.00288004125452 0.0
1.13964471751 -0.0216303149726 0.0
1.36839650126 -0.00246123799592 0.0
1.07619429075 -0.0288924939304 0.0
1.37398133609 -0.00326351880019 0.0
1.36981127726 -0.00220131431767 0.0
1.37111691612 -0.00202829503754 0.0
1.36590487755 -0.00370954384086 0.0
0.932277696033 -0.0148938693014 0.0
1.37232334141 -0.00193981509346 0.0
1.3625057016 -0.00414461878118 0.0
1.37300439626 -0.00165348896673 0.0
1.37304094296 -0.000882090593045 0.0
1.18599574527 -0.0172798372296 0.0
1.3730089454 -0.000201347954964 0.0
1.36375184453 8.58167902199e-06 0.0
1.40735427596 1.41433763885e-05 0.0
0.61806225296 0.000205237431452 0.0
1.35264970201 -0.00482110708307 0.0
1.40426115712 -5.3458632963e-05 0.0
0.633592041456 0.000228215457128 0.0
0.591735091745 0.000481125329259 0.0
1.40427842404 3.9530631396e-05 0.0
0.615527352389 0.000372340849803 0.0
1.34852467222 -0.00516139845082 0.0
1.22201831974 -0.0147497681349 0.0
0.614990956078 0.000364198908462 0.0
0.61463451524 0.000329326307046 0.0
0.614564787253 0.00020148274139 0.0
0.61520450772 2.93195100747e-05 0.0
1.34213128961 -0.00562428097515 0.0
1.25132595645 -0.0127956989538 0.0
0.616682157869 -6.57665710175e-05 0.0
0.618695827605 -9.42162786888e-05 0.0
0.620978131244 -0.000138903353421 0.0
0.623391073473 -0.000173732051741 0.0
0.626768875135 -0.000368750445148 0.0
1.33399233041 -0.00615383398638 0.0
1.27439267561 -0.0111263166223 0.0
0.629932487641 -0.000439403122036 0.0
0.633637316729 -0.000533215506216 0.0
0.501353450138 -0.000421793882071 0.0
0.637997706067 -0.00066886391203 0.0
0.820163491161 -0.00775124806221 0.0
0.661102730596 -0.000861280975285 0.0
0.782365462015 -0.00548865618267 0.0
0.669147574522 -0.00108816257964 0.0
0.642708168806 -0.000732106597591 0.0
0.754266138617 -0.00412150181111 0.0
0.677542154295 -0.000940134374097 0.0
0.732361189618 -0.00315815734696 0.0
0.523508174711 0.000285451135326 0.0
0.609392861577 -0.00216286994637 0.0
0.544675539455 -0.000243307044866 0.0
1.32427244816 -0.00633113063815 0.0
1.29295674198 -0.00982464843781 0.0
1.30592703456 -0.00901985173973 0.0
1.32927004226 -0.00700869163072 0.0
1.35635251709 -0.00467157559147 0.0
1.36443802299 -0.00442570077752 0.0
0.630287165035 -0.00276020876639 0.0
0.843264008759 -0.00759896998745 0.0
1.40601459003 2.56008894455e-05 0.0
1.0422237782 -0.0628784099801 0.0
1.12201839492 0.000251919055948 0.0
1.18720767808 1.01951296509e-05 0.0
1.04346570226 -0.0192988231375 0.0
0.512607805638 0.000155648250201 0.0
1.11162429746 -0.0732734716666 0.0
0.990835069552 -0.0491918347651 0.0
0.562399100127 -0.00140726550296 0.0
1.42171275311 -0.00221147738275 0.0
1.41829552758 -0.00258303534761 0.0
1.42390698359 -0.00183145399606 0.0
1.41348925809 -0.00289950331465 0.0
1.28070164236 -0.305391452888 0.0
1.4074264596 -0.0032704778666 0.0
1.42715291856 -0.00163137080961 0.0
1.40117960375 -0.00352473028867 0.0
1.43014979956 -0.00151172285284 0.0
1.43295440938 -0.00148932656841 0.0
1.19731006535 -0.0104229665251 0.0
1.37214327827 -0.00435717059432 0.0
1.10965488412 -0.0157461557072 0.0
1.36232200977 -0.0047117203042 0.0
1.231099076 -0.00917203120058 0.0
1.43509146691 -0.00120852814141 0.0
1.35133700104 -0.00500546885324 0.0
1.25969155368 -0.00811632271481 0.0
1.15771226161 -0.0121465821261 0.0
1.28392985293 -0.00726594092568 0.0
1.43608232542 -0.000485938512604 0.0
1.43516068676 2.67614944921e-05 0.0
1.43417555584 0.000107148908469 0.0
1.4313692604 0.000352411829016 0.0
1.43277978932 0.000253168407958 0.0
1.43398017593 0.000205036440588 0.0
1.15272164408 -0.00431499849729 0.0
0.728150398479 -0.00904346638365 0.0
0.779669232099 -0.0142865451868 0.0
0.83723088112 -0.0213948023167 0.0
0.698552786136 -0.00798454818041 0.0
0.480899672455 -0.000409895397763 0.0
0.480704428787 -0.000362585424442 0.0
0.480579855632 -0.000371513263453 0.0
1.20007186293 -0.00832251473347 0.0
0.480622738817 -0.000444130932441 0.0
0.481195605988 -0.000561124302446 0.0
0.482505354729 -0.000653088390739 0.0
1.12569578141 0.000164366709947 0.0
1.20490412961 -0.0107621378736 0.0
0.48432796437 -0.000687382759241 0.0
1.12590471479 0.000208066493915 0.0
0.486392561188 -0.000713847796981 0.0
0.488646103633 -0.000791146974615 0.0
0.490935627279 -0.000400609301839 0.0
0.493654383492 -0.000472829749024 0.0
1.1131457794 0.000125645795399 0.0
0.496847216296 -0.00055115799917 0.0
1.11290467439 0.000581449549198 0.0
0.489082812075 -0.000192886888421 0.0
0.500546486903 -0.000657143193726 0.0
1.11253376214 0.000467929370732 0.0
0.4911798893 -0.00032859486925 0.0
1.11289806473 0.000168259081037 0.0
0.487757693222 -0.000806903577365 0.0
0.504824893115 -0.000781547734434 0.0
1.11361672806 -0.000419374116239 0.0
0.488286062001 -0.000429983122671 0.0
0.495001326398 -0.000348312135674 0.0
1.11515321219 -0.000913317541178 0.0
0.670895144632 -0.0072240198992 0.0
1.11694121974 -0.00111364946636 0.0
1.11881941698 -0.00122086492924 0.0
0.522451641019 -0.000693591089833 0.0
1.12080778834 -0.00134952640095 0.0
1.12042639998 -0.0016800329256 0.0
1.2270615718 -0.0261237627594 0.0
0.635783871215 -0.00478074812009 0.0
0.529150015022 -0.00115500850785 0.0
1.12105559461 -0.00177022060702 0.0
1.12436124791 -0.00209967376005 0.0
0.610370996155 -0.00369416874041 0.0
0.536432477929 -0.0012078752297 0.0
1.12814030104 -0.00249509105423 0.0
0.591007068026 -0.00297871179084 0.0
0.519201450152 -0.000600304423488 0.0
1.13231664139 -0.002856684238 0.0
1.13467767413 -0.0031835401495 0.0
0.561663093305 -0.0021468497815 0.0
1.14607062558 -0.0048040767947 0.0
1.15276423222 -0.00409731759523 0.0
1.15939322188 -0.0046127186478 0.0
1.22047965922 -0.0203269680243 0.0
1.16669521728 -0.00508568652692 0.0
1.21147602911 -0.016292990597 0.0
1.17156328783 -0.00565274355617 0.0
1.2021441709 -0.0133836273291 0.0
1.19018619951 -0.0113218603899 0.0
1.22325626298 -0.0383881078461 0.0
1.20393791986 -0.0487113077569 0.0
1.18887053843 -0.0576928417031 0.0
1.18806018122 -0.00981259216295 0.0
1.22574797004 -0.0342406478449 0.0
1.22550588898 -0.0267959101399 0.0
1.19779266094 -0.0119954611196 0.0
1.16299593704 -0.00697983506202 0.0
1.20849363015 -0.0151035268203 0.0
1.15450809395 -0.00642089988502 0.0
1.21870046559 -0.0195764604896 0.0
1.14762825764 -0.00587900983427 0.0
0.586689196987 -0.00214855745914 0.0
1.14768154901 -0.0049720554239 0.0
0.605982820756 -0.00299266498323 0.0
0.545726332073 -0.00124999976755 0.0
0.673498135185 -0.00658167835844 0.0
1.12827458375 -0.00439407234311 0.0
0.627556454297 -0.00382069334637 0.0
0.542890999015 -0.00149840186844 0.0
1.12420834753 -0.00410857392718 0.0
1.12020595945 -0.00369531325803 0.0
0.65619342542 -0.00502518097626 0.0
0.53584023423 -0.00138789621032 0.0
1.1166608711 -0.00328207112089 0.0
1.43033288015 -0.000179962765294 0.0
1.11353890544 -0.00295187065712 0.0
1.12412565604 -0.00237768247616 0.0
0.506533254987 -0.000105924378515 0.0
1.12249720822 -0.00219393486003 0.0
1.12066825536 -0.0020414406567 0.0
1.11894071434 -0.00192064578435 0.0
1.11727754141 -0.0016436170707 0.0
1.11603570546 -0.00107852901112 0.0
1.11571057726 -0.000567815442376 0.0
1.11548815565 -0.000450179290959 0.0
1.11812123445 -6.09600914616e-05 0.0
1.11627136503 -3.99847124387e-06 0.0
1.11707652137 -0.00023736887872 0.0
1.11425677985 -0.000405734157358 0.0
1.3811498476 -0.00408271487503 0.0
1.43337129435 -0.000184185537209 0.0
0.516185062255 -0.00119390662142 0.0
0.5070321055 -0.00118226100863 0.0
0.502917384309 -0.00103358196136 0.0
0.49939631707 -0.000940375197819 0.0
0.496356160533 -0.000885531719972 0.0
1.43396408985 -5.20836359073e-05 0.0
0.493852866646 -0.000484512480829 0.0
0.491530631284 -0.000542660370147 0.0
0.489326333904 -0.000507085570532 0.0
0.487328466471 -0.000489370506109 0.0
0.485648831125 -0.000442723988053 0.0
0.484591105677 -0.000332909051347 0.0
1.4351468717 -0.000408595984915 0.0
0.484249952302 -0.000225314391933 0.0
0.484320227832 -0.000181690723547 0.0
0.484502324397 -0.000171372037478 0.0
0.487997066094 0.000171587146613 0.0
1.43450259039 -0.0011367208642 0.0
1.43276811144 -0.00164423042007 0.0
1.31178729863 -0.00729854593493 0.0
1.43010763652 -0.00171481916929 0.0
1.33267954564 -0.00522119970043 0.0
0.889669567462 -4.69264788492e-05 0.0
1.42713686242 -0.00179356726154 0.0
1.00637616142 -0.0133733744476 0.0
1.08571596917 -0.0190524486456 0.0
1.43034240776 -0.000154580763045 0.0
1.42398041754 -0.00197458631135 0.0
1.22321514395 -0.0897223758782 0.0
1.42074085715 -0.00216008657288 0.0
1.43185918538 -0.00183893730489 0.0
1.38703114397 -0.00352319460415 0.0
1.42630898247 -0.00209199466995 0.0
1.41984473591 -0.00237927065725 0.0
1.42836615288 0.000218528279188 0.0
1.41207915446 -0.00260497262875 0.0
1.40414972052 -0.00274672533694 0.0
1.13611900367 -0.0113532996911 0.0
1.17798266284 -0.0094012664717 0.0
1.37927982371 -0.0032657097296 0.0
1.34437746246 -0.00395580037033 0.0
1.2929218928 -0.00596382051812 0.0
1.36887508573 -0.00355870075192 0.0
1.21353118074 -0.00824309245292 0.0