# vtk DataFile Version 2.0
2D Simulation Python
ASCII
DATASET UNSTRUCTURED_GRID
FIELD FieldData 1
NODES 1 2 int
2790 1289

POINTS 2790 double
0.0 1.0 0.0
1.725 1.0 0.0
8.275 1.0 0.0
20.0 1.0 0.0
20.0 0.0 0.0
0.0 0.0 0.0
0.1916666666663293 1.0 0.0
0.3833333333324708 1.0 0.0
0.574999999998553 1.0 0.0
0.7666666666645966 1.0 0.0
0.9583333333312576 1.0 0.0
1.149999999998384 1.0 0.0
1.341666666665662 1.0 0.0
1.533333333332819 1.0 0.0
0.0958333333331406 1.0 0.0
0.2874999999994247 1.0 0.0
0.4791666666655395 1.0 0.0
0.6708333333315728 1.0 0.0
0.8624999999976626 1.0 0.0
1.054166666664886 1.0 0.0
1.245833333332057 1.0 0.0
1.437499999999343 1.0 0.0
1.629166666666455 1.0 0.0
1.92348484848444 1.0 0.0
2.121969696968978 1.0 0.0
2.320454545453434 1.0 0.0
2.518939393937826 1.0 0.0
2.717424242422235 1.0 0.0
2.915909090906411 1.0 0.0
3.1143939393908 1.0 0.0
3.312878787875129 1.0 0.0
3.511363636359531 1.0 0.0
3.709848484843827 1.0 0.0
3.90833333332816 1.0 0.0
4.106818181812215 1.0 0.0
4.305303030296804 1.0 0.0
4.503787878781365 1.0 0.0
4.702272727265711 1.0 0.0
4.900757575750005 1.0 0.0
5.099242424235156 1.0 0.0
5.297727272720327 1.0 0.0
5.496212121205663 1.0 0.0
5.694696969690998 1.0 0.0
5.89318181817668 1.0 0.0
6.09166666666213 1.0 0.0
6.290151515147423 1.0 0.0
6.488636363633031 1.0 0.0
6.687121212118713 1.0 0.0
6.885606060604342 1.0 0.0
7.084090909089381 1.0 0.0
7.282575757574369 1.0 0.0
7.481060606059355 1.0 0.0
7.679545454544343 1.0 0.0
7.878030303029329 1.0 0.0
8.076515151514705 1.0 0.0
1.824242424242199 1.0 0.0
2.022727272726695 1.0 0.0
2.221212121211181 1.0 0.0
2.41969696969563 1.0 0.0
2.618181818180092 1.0 0.0
2.816666666664316 1.0 0.0
3.015151515148624 1.0 0.0
3.213636363633039 1.0 0.0
3.412121212117267 1.0 0.0
3.610606060601583 1.0 0.0
3.809090909085975 1.0 0.0
4.007575757570153 1.0 0.0
4.206060606054539 1.0 0.0
4.404545454539001 1.0 0.0
4.603030303023853 1.0 0.0
4.801515151507715 1.0 0.0
4.999999999992074 1.0 0.0
5.198484848477777 1.0 0.0
5.396969696963081 1.0 0.0
5.595454545448261 1.0 0.0
5.793939393933949 1.0 0.0
5.992424242419331 1.0 0.0
6.190909090904785 1.0 0.0
6.389393939390224 1.0 0.0
6.587878787875795 1.0 0.0
6.786363636361617 1.0 0.0
6.984848484846598 1.0 0.0
7.183333333331875 1.0 0.0
7.381818181816625 1.0 0.0
7.580303030301849 1.0 0.0
7.778787878786936 1.0 0.0
7.977272727272114 1.0 0.0
8.175757575757618 1.0 0.0
8.473728813558951 1.0 0.0
8.672457627118133 1.0 0.0
8.871186440676855 1.0 0.0
9.069915254236154 1.0 0.0
9.268644067794812 1.0 0.0
9.467372881354057 1.0 0.0
9.666101694912944 1.0 0.0
9.864830508471961 1.0 0.0
10.06355932203108 1.0 0.0
10.26228813558986 1.0 0.0
10.46101694914916 1.0 0.0
10.65974576270777 1.0 0.0
10.85847457626706 1.0 0.0
11.05720338982589 1.0 0.0
11.25593220338497 1.0 0.0
11.45466101694402 1.0 0.0
11.65338983050287 1.0 0.0
11.85211864406215 1.0 0.0
12.05084745762035 1.0 0.0
12.24957627117938 1.0 0.0
12.44830508473794 1.0 0.0
12.64703389829659 1.0 0.0
12.84576271185557 1.0 0.0
13.04449152541379 1.0 0.0
13.24322033897301 1.0 0.0
13.44194915253121 1.0 0.0
13.6406779660903 1.0 0.0
13.83940677964874 1.0 0.0
14.03813559320751 1.0 0.0
14.23686440676681 1.0 0.0
14.43559322032663 1.0 0.0
14.63432203388679 1.0 0.0
14.8330508474463 1.0 0.0
15.0317796610067 1.0 0.0
15.23050847456608 1.0 0.0
15.42923728812645 1.0 0.0
15.62796610168606 1.0 0.0
15.82669491524602 1.0 0.0
16.02542372880584 1.0 0.0
16.22415254236431 1.0 0.0
16.42288135592496 1.0 0.0
16.62161016948498 1.0 0.0
16.82033898304518 1.0 0.0
17.01906779660567 1.0 0.0
17.2177966101654 1.0 0.0
17.41652542372565 1.0 0.0
17.61525423728425 1.0 0.0
17.81398305084494 1.0 0.0
18.01271186440355 1.0 0.0
18.21144067796387 1.0 0.0
18.41016949152309 1.0 0.0
18.6088983050827 1.0 0.0
18.80762711864282 1.0 0.0
19.00635593220153 1.0 0.0
19.20508474576211 1.0 0.0
19.40381355932072 1.0 0.0
19.60254237288117 1.0 0.0
19.80127118644013 1.0 0.0
8.374364406779554 1.0 0.0
8.573093220338519 1.0 0.0
8.771822033897509 1.0 0.0
8.970550847456504 1.0 0.0
9.169279661015429 1.0 0.0
9.368008474574502 1.0 0.0
9.566737288133496 1.0 0.0
9.765466101692677 1.0 0.0
9.964194915251602 1.0 0.0
10.16292372881015 1.0 0.0
10.36165254236967 1.0 0.0
10.56038135592849 1.0 0.0
10.75911016948728 1.0 0.0
10.95783898304648 1.0 0.0
11.15656779660554 1.0 0.0
11.35529661016447 1.0 0.0
11.55402542372345 1.0 0.0
11.75275423728253 1.0 0.0
11.95148305084111 1.0 0.0
12.15021186439983 1.0 0.0
12.34894067795883 1.0 0.0
12.54766949151722 1.0 0.0
12.74639830507616 1.0 0.0
12.94512711863486 1.0 0.0
13.14385593219357 1.0 0.0
13.34258474575207 1.0 0.0
13.54131355931069 1.0 0.0
13.7400423728695 1.0 0.0
13.93877118642822 1.0 0.0
14.13749999998697 1.0 0.0
14.33622881354686 1.0 0.0
14.53495762710678 1.0 0.0
14.73368644066656 1.0 0.0
14.93241525422655 1.0 0.0
15.13114406778625 1.0 0.0
15.32987288134641 1.0 0.0
15.52860169490635 1.0 0.0
15.7273305084661 1.0 0.0
15.9260593220261 1.0 0.0
16.12478813558534 1.0 0.0
16.32351694914468 1.0 0.0
16.52224576270527 1.0 0.0
16.72097457626511 1.0 0.0
16.91970338982543 1.0 0.0
17.11843220338561 1.0 0.0
17.31716101694539 1.0 0.0
17.51588983050497 1.0 0.0
17.71461864406449 1.0 0.0
17.91334745762401 1.0 0.0
18.11207627118383 1.0 0.0
18.31080508474307 1.0 0.0
18.50953389830311 1.0 0.0
18.70826271186271 1.0 0.0
18.90699152542239 1.0 0.0
19.10572033898203 1.0 0.0
19.30444915254171 1.0 0.0
19.50317796610107 1.0 0.0
19.70190677966065 1.0 0.0
19.90063559322003 1.0 0.0
20.0 0.7999999999999998 0.0
20.0 0.6000000000013869 0.0
20.0 0.4000000000016644 0.0
20.0 0.2000000000008322 0.0
20.0 0.9000000000000369 0.0
20.0 0.7000000000005904 0.0
20.0 0.5000000000017577 0.0
20.0 0.3000000000012483 0.0
20.0 0.1000000000004161 0.0
19.8 0.0 0.0
19.6 0.0 0.0
19.4 0.0 0.0
19.2 0.0 0.0
19.0 0.0 0.0
18.8 0.0 0.0
18.6 0.0 0.0
18.4 0.0 0.0
18.2 0.0 0.0
18.0 0.0 0.0
17.8 0.0 0.0
17.59999999999999 0.0 0.0
17.4 0.0 0.0
17.2 0.0 0.0
16.99999999999999 0.0 0.0
16.79999999999999 0.0 0.0
16.59999999999999 0.0 0.0
16.4 0.0 0.0
16.2 0.0 0.0
15.99999999999999 0.0 0.0
15.79999999999999 0.0 0.0
15.59999999999999 0.0 0.0
15.4 0.0 0.0
15.2 0.0 0.0
15.0 0.0 0.0
14.79999999999999 0.0 0.0
14.59999999999999 0.0 0.0
14.4 0.0 0.0
14.2 0.0 0.0
13.99999999999999 0.0 0.0
13.8 0.0 0.0
13.59999999999999 0.0 0.0
13.4 0.0 0.0
13.2 0.0 0.0
13.0 0.0 0.0
12.79999999999999 0.0 0.0
12.6 0.0 0.0
12.4 0.0 0.0
12.2 0.0 0.0
11.99999999999999 0.0 0.0
11.8 0.0 0.0
11.6 0.0 0.0
11.4 0.0 0.0
11.2 0.0 0.0
11.0 0.0 0.0
10.8 0.0 0.0
10.6 0.0 0.0
10.4 0.0 0.0
10.2 0.0 0.0
9.999999999999998 0.0 0.0
9.799999999999995 0.0 0.0
9.599999999999998 0.0 0.0
9.399999999999997 0.0 0.0
9.199999999999998 0.0 0.0
8.999999999999996 0.0 0.0
8.799999999999997 0.0 0.0
8.599999999999996 0.0 0.0
8.399999999999999 0.0 0.0
8.199999999999996 0.0 0.0
7.999999999999998 0.0 0.0
7.799999999999997 0.0 0.0
7.599999999999998 0.0 0.0
7.399999999999999 0.0 0.0
7.199999999999998 0.0 0.0
6.999999999999995 0.0 0.0
6.799999999999995 0.0 0.0
6.599999999999998 0.0 0.0
6.399999999999997 0.0 0.0
6.199999999999996 0.0 0.0
5.999999999999998 0.0 0.0
5.799999999999999 0.0 0.0
5.599999999999996 0.0 0.0
5.399999999999995 0.0 0.0
5.199999999999996 0.0 0.0
4.999999999999998 0.0 0.0
4.799999999999997 0.0 0.0
4.599999999999998 0.0 0.0
4.399999999999999 0.0 0.0
4.199999999999999 0.0 0.0
3.999999999999996 0.0 0.0
3.799999999999997 0.0 0.0
3.599999999999998 0.0 0.0
3.399999999999999 0.0 0.0
3.199999999999999 0.0 0.0
3.0 0.0 0.0
2.800000000000001 0.0 0.0
2.599999999999998 0.0 0.0
2.399999999999999 0.0 0.0
2.199999999999996 0.0 0.0
1.999999999999996 0.0 0.0
1.800000000000001 0.0 0.0
1.599999999999998 0.0 0.0
1.399999999999999 0.0 0.0
1.200000000000003 0.0 0.0
1.0 0.0 0.0
0.7999999999999972 0.0 0.0
0.5999999999999979 0.0 0.0
0.3999999999999986 0.0 0.0
0.1999999999999993 0.0 0.0
19.90000000000022 0.0 0.0
19.69999999999997 0.0 0.0
19.49999999999987 0.0 0.0
19.30000000000005 0.0 0.0
19.09999999999999 0.0 0.0
18.89999999999987 0.0 0.0
18.7 0.0 0.0
18.49999999999999 0.0 0.0
18.30000000000001 0.0 0.0
18.09999999999987 0.0 0.0
17.90000000000013 0.0 0.0
17.7 0.0 0.0
17.49999999999987 0.0 0.0
17.30000000000025 0.0 0.0
17.10000000000001 0.0 0.0
16.90000000000005 0.0 0.0
16.70000000000003 0.0 0.0
16.50000000000006 0.0 0.0
16.29999999999997 0.0 0.0
16.09999999999999 0.0 0.0
15.89999999999987 0.0 0.0
15.69999999999999 0.0 0.0
15.49999999999999 0.0 0.0
15.3 0.0 0.0
15.10000000000003 0.0 0.0
14.90000000000005 0.0 0.0
14.69999999999992 0.0 0.0
14.49999999999996 0.0 0.0
14.29999999999999 0.0 0.0
14.10000000000008 0.0 0.0
13.89999999999988 0.0 0.0
13.70000000000003 0.0 0.0
13.50000000000004 0.0 0.0
13.29999999999992 0.0 0.0
13.09999999999995 0.0 0.0
12.90000000000016 0.0 0.0
12.7 0.0 0.0
12.49999999999986 0.0 0.0
12.30000000000003 0.0 0.0
12.10000000000016 0.0 0.0
11.90000000000005 0.0 0.0
11.69999999999994 0.0 0.0
11.49999999999993 0.0 0.0
11.30000000000005 0.0 0.0
11.0999999999999 0.0 0.0
10.90000000000004 0.0 0.0
10.69999999999995 0.0 0.0
10.50000000000012 0.0 0.0
10.29999999999999 0.0 0.0
10.09999999999993 0.0 0.0
9.900000000000077 0.0 0.0
9.699999999999969 0.0 0.0
9.499999999999982 0.0 0.0
9.299999999999969 0.0 0.0
9.100000000000108 0.0 0.0
8.899999999999972 0.0 0.0
8.699999999999958 0.0 0.0
8.499999999999998 0.0 0.0
8.30000000000003 0.0 0.0
8.099999999999977 0.0 0.0
7.899999999999974 0.0 0.0
7.700000000000166 0.0 0.0
7.499999999999854 0.0 0.0
7.299999999999997 0.0 0.0
7.100000000000019 0.0 0.0
6.900000000000002 0.0 0.0
6.699999999999974 0.0 0.0
6.500000000000037 0.0 0.0
6.299999999999981 0.0 0.0
6.100000000000014 0.0 0.0
5.899999999999949 0.0 0.0
5.700000000000049 0.0 0.0
5.499999999999956 0.0 0.0
5.300000000000118 0.0 0.0
5.100000000000005 0.0 0.0
4.900000000000109 0.0 0.0
4.699999999999982 0.0 0.0
4.499999999999936 0.0 0.0
4.300000000000137 0.0 0.0
4.100000000000012 0.0 0.0
3.899999999999888 0.0 0.0
3.69999999999974 0.0 0.0
3.500000000000046 0.0 0.0
3.299999999999965 0.0 0.0
3.099999999999817 0.0 0.0
2.900000000000066 0.0 0.0
2.699999999999793 0.0 0.0
2.500000000000064 0.0 0.0
2.299999999999823 0.0 0.0
[...]
POINT_DATA 2790
VECTORS vector double
1.0 0.0 0.0
0.0 0.0 0.0
0.0 0.0 0.0
0.0 0.0 0.0
1.55749518777 0.0 0.0
1.0 0.0 0.0
0.0 0.0 0.0
0.0 0.0 0.0
0.0 0.0 0.0
0.0 0.0 0.0
0.0 0.0 0.0
0.0 0.0 0.0
0.0 0.0 0.0
0.0 0.0 0.0
0.0 0.0 0.0
0.0 0.0 0.0
0.0 0.0 0.0
0.0 0.0 0.0
0.0 0.0 0.0
0.0 0.0 0.0
0.0 0.0 0.0
0.0 0.0 0.0
0.0 0.0 0.0
0.0 0.0 0.0
0.0 0.0 0.0
0.0 0.0 0.0
0.0 0.0 0.0
0.0 0.0 0.0
0.0 0.0 0.0
0.0 0.0 0.0
0.0 0.0 0.0
0.0 0.0 0.0
0.0 0.0 0.0
0.0 0.0 0.0
0.0 0.0 0.0
0.0 0.0 0.0
0.0 0.0 0.0
0.0 0.0 0.0
0.0 0.0 0.0
0.0 0.0 0.0
0.0 0.0 0.0
0.0 0.0 0.0
0.0 0.0 0.0
0.0 0.0 0.0
0.0 0.0 0.0
0.0 0.0 0.0
0.0 0.0 0.0
0.0 0.0 0.0
0.0 0.0 0.0
0.0 0.0 0.0
0.0 0.0 0.0
0.0 0.0 0.0
0.0 0.0 0.0
0.0 0.0 0.0
0.0 0.0 0.0
0.0 0.0 0.0
0.0 0.0 0.0
0.0 0.0 0.0
0.0 0.0 0.0
0.0 0.0 0.0
0.0 0.0 0.0
0.0 0.0 0.0
0.0 0.0 0.0
0.0 0.0 0.0
0.0 0.0 0.0
0.0 0.0 0.0
0.0 0.0 0.0
0.0 0.0 0.0
0.0 0.0 0.0
0.0 0.0 0.0
0.0 0.0 0.0
0.0 0.0 0.0
0.0 0.0 0.0
0.0 0.0 0.0
0.0 0.0 0.0
0.0 0.0 0.0
0.0 0.0 0.0
0.0 0.0 0.0
0.0 0.0 0.0
0.0 0.0 0.0
0.0 0.0 0.0
0.0 0.0 0.0
0.0 0.0 0.0
0.0 0.0 0.0
0.0 0.0 0.0
0.0 0.0 0.0
0.0 0.0 0.0
0.0 0.0 0.0
0.0 0.0 0.0
0.0 0.0 0.0
0.0 0.0 0.0
0.0 0.0 0.0
0.0 0.0 0.0
0.0 0.0 0.0
0.0 0.0 0.0
0.0 0.0 0.0
0.0 0.0 0.0
0.0 0.0 0.0
0.0 0.0 0.0
0.0 0.0 0.0
0.0 0.0 0.0
0.0 0.0 0.0
0.0 0.0 0.0
0.0 0.0 0.0
0.0 0.0 0.0
0.0 0.0 0.0
0.0 0.0 0.0
0.0 0.0 0.0
0.0 0.0 0.0
0.0 0.0 0.0
0.0 0.0 0.0
0.0 0.0 0.0
0.0 0.0 0.0
0.0 0.0 0.0
0.0 0.0 0.0
0.0 0.0 0.0
0.0 0.0 0.0
0.0 0.0 0.0
0.0 0.0 0.0
0.0 0.0 0.0
0.0 0.0 0.0
0.0 0.0 0.0
0.0 0.0 0.0
0.0 0.0 0.0
0.0 0.0 0.0
0.0 0.0 0.0
0.0 0.0 0.0
0.0 0.0 0.0
0.0 0.0 0.0
0.0 0.0 0.0
0.0 0.0 0.0
0.0 0.0 0.0
0.0 0.0 0.0
0.0 0.0 0.0
0.0 0.0 0.0
0.0 0.0 0.0
0.0 0.0 0.0
0.0 0.0 0.0
0.0 0.0 0.0
0.0 0.0 0.0
0.0 0.0 0.0
0.0 0.0 0.0
0.0 0.0 0.0
0.0 0.0 0.0
0.0 0.0 0.0
0.0 0.0 0.0
0.0 0.0 0.0
0.0 0.0 0.0
0.0 0.0 0.0
0.0 0.0 0.0
0.0 0.0 0.0
0.0 0.0 0.0
0.0 0.0 0.0
0.0 0.0 0.0
0.0 0.0 0.0
0.0 0.0 0.0
0.0 0.0 0.0
0.0 0.0 0.0
0.0 0.0 0.0
0.0 0.0 0.0
0.0 0.0 0.0
0.0 0.0 0.0
0.0 0.0 0.0
0.0 0.0 0.0
0.0 0.0 0.0
0.0 0.0 0.0
0.0 0.0 0.0
0.0 0.0 0.0
0.0 0.0 0.0
0.0 0.0 0.0
0.0 0.0 0.0
0.0 0.0 0.0
0.0 0.0 0.0
0.0 0.0 0.0
0.0 0.0 0.0
0.0 0.0 0.0
0.0 0.0 0.0
0.0 0.0 0.0
0.0 0.0 0.0
0.0 0.0 0.0
0.0 0.0 0.0
0.0 0.0 0.0
0.0 0.0 0.0
0.0 0.0 0.0
0.0 0.0 0.0
0.0 0.0 0.0
0.0 0.0 0.0
0.0 0.0 0.0
0.0 0.0 0.0
0.0 0.0 0.0
0.0 0.0 0.0
0.0 0.0 0.0
0.0 0.0 0.0
0.0 0.0 0.0
0.0 0.0 0.0
0.0 0.0 0.0
0.0 0.0 0.0
0.0 0.0 0.0
0.0 0.0 0.0
0.0 0.0 0.0
0.0 0.0 0.0
0.0 0.0 0.0
0.0 0.0 0.0
0.0 0.0 0.0
0.0 0.0 0.0
0.550527651192 0.000224117487831 0.0
0.967750732609 -0.000103838620796 0.0
1.2531665569 -0.00051790534982 0.0
1.43378673699 -0.000339007244168 0.0
0.281661913493 -0.000219046436503 0.0
0.765155242156 0.00130415627738 0.0
1.11587496074 -0.000113124687695 0.0
1.34653539847 -0.000811388049879 0.0
1.49487922108 -0.000283521265689 0.0
1.55623690336 0.0 0.0
1.55624371931 0.0 0.0
1.55644472701 0.0 0.0
1.55664367213 0.0 0.0
1.55598056625 0.0 0.0
1.55688889395 0.0 0.0
1.55705796354 0.0 0.0
1.55652844655 0.0 0.0
1.55706467535 0.0 0.0
1.55713660217 0.0 0.0
1.55655546329 0.0 0.0
1.55690349475 0.0 0.0
1.55670755797 0.0 0.0
1.55569653799 0.0 0.0
1.55392659044 0.0 0.0
1.55276850981 0.0 0.0
1.55230824642 0.0 0.0
1.54964053117 0.0 0.0
1.54755149399 0.0 0.0
1.54644080646 0.0 0.0
1.54332739464 0.0 0.0
1.54104787508 0.0 0.0
1.53986894096 0.0 0.0
1.5367002567 0.0 0.0
1.53437653579 0.0 0.0
1.53311289037 0.0 0.0
1.52977680294 0.0 0.0
1.52723978287 0.0 0.0
1.52575520613 0.0 0.0
1.5221523778 0.0 0.0
1.51932440993 0.0 0.0
1.51756112536 0.0 0.0
1.51363789443 0.0 0.0
1.51047040647 0.0 0.0
1.50840298473 0.0 0.0
1.50411213436 0.0 0.0
1.50058649605 0.0 0.0
1.49824743136 0.0 0.0
1.49322839947 0.0 0.0
1.48911834579 0.0 0.0
1.48645507188 0.0 0.0
1.48149979824 0.0 0.0
1.47709154318 0.0 0.0
1.47411664181 0.0 0.0
1.46884220449 0.0 0.0
1.46408420049 0.0 0.0
1.46082680772 0.0 0.0
1.45530984591 0.0 0.0
1.45025658904 0.0 0.0
1.44660217347 0.0 0.0
1.44091357332 0.0 0.0
1.43563331633 0.0 0.0
1.43152149297 0.0 0.0
1.42827763815 0.0 0.0
1.42197259808 0.0 0.0
1.41539600719 0.0 0.0
1.40976500116 0.0 0.0
1.40503606429 0.0 0.0
1.39873510046 0.0 0.0
1.3929203842 0.0 0.0
1.38849164098 0.0 0.0
1.3819115493 0.0 0.0
1.37576522861 0.0 0.0
1.37113121437 0.0 0.0
1.36426933655 0.0 0.0
1.3578677727 0.0 0.0
1.35289320572 0.0 0.0
1.34581844953 0.0 0.0
1.33913525727 0.0 0.0
1.33352982989 0.0 0.0
1.32819223282 0.0 0.0
1.32008088755 0.0 0.0
1.31313181993 0.0 0.0
1.30545641045 0.0 0.0
1.29702423111 0.0 0.0
1.28976786629 0.0 0.0
1.28093444422 0.0 0.0
1.27208834574 0.0 0.0
1.26398674392 0.0 0.0
1.25601582082 0.0 0.0
1.24690139813 0.0 0.0
1.23817826772 0.0 0.0
1.22934811043 0.0 0.0
1.21971054767 0.0 0.0
1.21012893741 0.0 0.0
1.20023513741 0.0 0.0
1.18986613553 0.0 0.0
1.17915756853 0.0 0.0
1.1678960796 0.0 0.0
1.15641220976 0.0 0.0
1.14400151646 0.0 0.0
1.1303594451 0.0 0.0
1.1163350646 0.0 0.0
1.10047964219 0.0 0.0
1.0822447082 0.0 0.0
1.06311139284 0.0 0.0
1.04122648174 0.0 0.0
1.01959466865 0.0 0.0
1.00432903223 0.0 0.0
1.55671188245 0.0 0.0
1.55567425456 0.0 0.0
1.55702472787 0.0 0.0
1.55576516283 0.0 0.0
1.55575922077 0.0 0.0
1.55609599258 0.0 0.0
1.55762032836 0.0 0.0
1.55624006244 0.0 0.0
1.55621467187 0.0 0.0
1.55764906267 0.0 0.0
1.55628099182 0.0 0.0
1.55612150061 0.0 0.0
1.55734993669 0.0 0.0
1.55565499403 0.0 0.0
1.55498927018 0.0 0.0
1.55290635787 0.0 0.0
1.55278689584 0.0 0.0
1.55109490936 0.0 0.0
1.54799633573 0.0 0.0
1.54717172805 0.0 0.0
1.54494272164 0.0 0.0
1.54153138382 0.0 0.0
1.5406116257 0.0 0.0
1.53834356676 0.0 0.0
1.53486594821 0.0 0.0
1.53389205055 0.0 0.0
1.53148813724 0.0 0.0
1.52780468749 0.0 0.0
1.52663019411 0.0 0.0
1.52396740784 0.0 0.0
1.51999132893 0.0 0.0
1.51855615826 0.0 0.0
1.51557968081 0.0 0.0
1.5112551151 0.0 0.0
1.50952218244 0.0 0.0
1.50621826765 0.0 0.0
1.50154820265 0.0 0.0
1.49943262995 0.0 0.0
1.49567220911 0.0 0.0
1.49040112517 0.0 0.0
1.48749439105 0.0 0.0
1.48407702412 0.0 0.0
1.47851901805 0.0 0.0
1.47527135978 0.0 0.0
1.47155086072 0.0 0.0
1.46564314071 0.0 0.0
1.46208578437 0.0 0.0
1.45811487628 0.0 0.0
1.45192364922 0.0 0.0
1.44802866997 0.0 0.0
1.44379392897 0.0 0.0
1.43742367925 0.0 0.0
1.43325514123 0.0 0.0
1.42868989177 0.0 0.0
1.42426790381 0.0 0.0
1.41837202016 0.0 0.0
1.41164907256 0.0 0.0
1.40701548193 0.0 0.0
1.40186183745 0.0 0.0
1.39503480048 0.0 0.0
1.39025724522 0.0 0.0
1.38518787931 0.0 0.0
1.37789276303 0.0 0.0
1.37295829407 0.0 0.0
1.36763662062 0.0 0.0
1.36014113337 0.0 0.0
1.3548831815 0.0 0.0
1.34927811943 0.0 0.0
1.34160904526 0.0 0.0
1.33593667684 0.0 0.0
1.32968328288 0.0 0.0
1.32320608376 0.0 0.0
1.31597907403 0.0 0.0
1.30862213574 0.0 0.0
1.30067913322 0.0 0.0
1.29281345757 0.0 0.0
1.28410059805 0.0 0.0
1.27603481066 0.0 0.0
1.26750395677 0.0 0.0
1.25983898431 0.0 0.0
1.25093430561 0.0 0.0
1.24212128423 0.0 0.0
1.23357010523 0.0 0.0
1.2241256956 0.0 0.0
1.21465698741 0.0 0.0
1.20499534682 0.0 0.0
1.19479044887 0.0 0.0
1.184427904 0.0 0.0
1.17338357427 0.0 0.0
1.16204789123 0.0 0.0
1.15032735473 0.0 0.0
1.13709036437 0.0 0.0
1.12340666283 0.0 0.0
1.10869506225 0.0 0.0
1.09128547872 0.0 0.0
1.07281575083 0.0 0.0
1.05260483365 0.0 0.0
1.03022874137 0.0 0.0
1.01155728108 0.0 0.0
0.999356436254 0.0 0.0
1.0 0.0 0.0
1.0 0.0 0.0
1.0 0.0 0.0
1.0 0.0 0.0
1.0 0.0 0.0
1.0 0.0 0.0
1.0 0.0 0.0
1.0 0.0 0.0
1.0 0.0 0.0
1.16558657848 -0.0704121391207 0.0
1.22304235706 -0.046379944824 0.0
1.22789658471 -0.031511116647 0.0
1.09589089477 -6.44292307177e-05 0.0
1.13178022931 -9.69312134144e-05 0.0
1.1307901232 2.73087625514e-06 0.0
1.12784358845 -1.70259815652e-06 0.0
1.12605519306 -0.00032821017986 0.0
1.12703628148 -0.000872273508894 0.0
1.12840823488 -0.00130050333892 0.0
1.1299714776 -0.00150608729304 0.0
1.13164489673 -0.00164556070323 0.0
1.13353349069 -0.00180259414283 0.0
1.1356981552 -0.00200612300158 0.0
1.13818064024 -0.00225882577087 0.0
1.09313559894 -0.00231005118254 0.0
1.09682729797 -0.00252821622394 0.0
1.10087817175 -0.00284636089047 0.0
1.10528230365 -0.00315692921804 0.0
1.16058449979 -0.00453012237843 0.0
1.22166319384 -0.0230880146278 0.0
1.13212398607 -0.00460528985927 0.0
1.11014496098 -0.003367324515 0.0
1.20874153033 -0.0177641566329 0.0
1.13940573838 -0.00513419949789 0.0
1.15090856026 -0.00403387300296 0.0
1.19559589777 -0.0140411425821 0.0
1.14772842821 -0.00559161766616 0.0
1.18330528702 -0.0114989379536 0.0
1.18463192633 -0.00690007618996 0.0
1.19537665048 -0.0107344011707 0.0
1.15691609 -0.00451152949487 0.0
1.17254030395 -0.00998681853578 0.0
0.894225502517 -0.000737987626822 0.0
1.19725298781 -0.143477313799 0.0
1.29338892421 -0.0108389128368 0.0
1.28124600944 -0.0126054748321 0.0
1.31240448672 -0.00727909458174 0.0
1.2666074359 -0.0148392413423 0.0
1.31344623646 -0.00652612174165 0.0
1.21655327654 -0.0209639398105 0.0
1.24592352581 -0.0176167963921 0.0
1.31589917102 -0.00598669816607 0.0
1.3176608224 -0.00549496147595 0.0
1.3210166317 -0.00467311923021 0.0
1.32203961303 -0.00431949266862 0.0
1.32261230656 -0.00399690635449 0.0
1.32304228055 -0.00362465708669 0.0
1.32324606771 -0.00326888834609 0.0
1.31410532661 -0.00296821500663 0.0
1.3138744063 -0.00258711128796 0.0
1.31385574349 -0.00231156443938 0.0
1.2099790257 -0.0544966607522 0.0
1.31378816078 -0.00207810495694 0.0
1.31380601168 -0.00189813919223 0.0
1.31382600865 -0.00175176032175 0.0
1.17506603633 -0.0255857430888 0.0
1.3135672527 -0.00149404388169 0.0
1.14074737428 -0.0296110619597 0.0
1.12652521741 -0.0343415097165 0.0
1.31116030986 -0.000886032215108 0.0
1.31071161685 -0.000303254165832 0.0
0.850997390882 -0.000299678023357 0.0
1.3103167393 1.20510875264e-05 0.0
0.850680410426 -0.000135289953779 0.0
0.976034356868 -0.00726672341277 0.0
0.995651833092 -0.00867145412684 0.0
0.935451241619 -0.0032726488294 0.0
1.08915759389 -0.0197746345247 0.0
1.01951329666 -0.0110063879825 0.0
0.922947150544 -0.00353551719246 0.0
1.04970919592 -0.0145886753904 0.0
0.912718564273 -0.00328739586042 0.0
0.903714386885 -0.0028907446495 0.0
0.895481746278 -0.00224483757197 0.0
0.888838977689 -0.00234724126538 0.0
0.882871621931 -0.00214110022619 0.0
0.877406209308 -0.00193582629978 0.0
0.872531190913 -0.00173792521673 0.0
0.868301375894 -0.00144970131078 0.0
0.864494099745 -0.0013506232669 0.0
0.861190967538 -0.00120461442786 0.0
0.858182705446 -0.00109354931393 0.0
0.855449200135 -0.00101039875414 0.0
0.852999041413 -0.000906366584543 0.0
1.31452074537 3.93390466029e-05 0.0
0.850986690043 -0.000700795743394 0.0
0.849701264338 -0.000420544501681 0.0
0.849304022909 -9.0318512017e-05 0.0
0.849356083079 1.74332321219e-05 0.0
1.33113666828 -6.1522813211e-05 0.0
1.03252641566 -0.033874997148 0.0
1.33614598327 -0.00014965084336 0.0
1.320321536 -0.00508950363112 0.0
1.31330722916 -0.00848417155892 0.0
1.30447387944 -0.00963807668398 0.0
1.33143167667 -0.0053460399409 0.0
0.83989847114 -0.00333465973297 0.0
0.880063543093 -0.0023526395013 0.0
0.897741347307 -0.00361424693874 0.0
0.907140564287 -0.00791303991194 0.0
1.1785302816 -0.0751115151019 0.0
1.03979930692 -0.0276073231327 0.0
1.33830791538 -0.000228362822333 0.0
1.38570569006 -0.00293101771041 0.0
1.38269560658 -0.00324171795081 0.0
1.13725352314 -0.0209032554538 0.0
1.37544134399 -0.00281981185684 0.0
1.07386110612 -0.0282567760913 0.0
1.37907285193 -0.00355365224335 0.0
1.37718679784 -0.00250291403313 0.0
1.37870359864 -0.00224196278526 0.0
1.37044251312 -0.00394599865295 0.0
0.951991179508 -0.0158901157432 0.0
1.38014148156 -0.00202732310169 0.0
1.36648149068 -0.00420950809301 0.0
1.38152453229 -0.00186306573142 0.0
1.38272108734 -0.00173014103447 0.0
1.18350503661 -0.017022007682 0.0
1.38336350143 -0.00137613304238 0.0
1.37373688583 -0.000654906068212 0.0
1.4192605951 -0.000109946249868 0.0
0.629545212539 0.000107548822263 0.0
1.3553768347 -0.00490778026359 0.0
1.41594816821 -1.16490495279e-05 0.0
0.645079033544 0.000140115010408 0.0
0.603637311086 0.000517794426254 0.0
1.41585287327 -1.81228586422e-05 0.0
0.627129921629 0.000385014679421 0.0
1.35080068737 -0.00517042599296 0.0
1.21982968798 -0.0144093534867 0.0
0.626805642842 0.000271324522243 0.0
0.627247060396 0.000107674219386 0.0
0.628407259922 -7.1290358794e-06 0.0
0.630166018334 -5.23142369934e-05 0.0
1.34400385114 -0.0055709250797 0.0
1.24966486795 -0.012475162991 0.0
0.632265494514 -7.84718761228e-05 0.0
0.634602588866 -0.000113793110785 0.0
0.637207456217 -0.000177839632302 0.0
0.640047927759 -0.000227562732001 0.0
0.643963093755 -0.000461341267506 0.0
1.33545798508 -0.00608101209604 0.0
1.27330817691 -0.0108550816507 0.0
0.647777845303 -0.00055568078708 0.0
0.652153803974 -0.000667684910584 0.0
0.522770187163 -0.000569292039277 0.0
0.657086141333 -0.000769083496115 0.0
0.844501083313 -0.00825633987365 0.0
0.681686975604 -0.00095456308801 0.0
0.805744310928 -0.0058810943051 0.0
0.689937601366 -0.0011566222267 0.0
0.662251482933 -0.000836259042143 0.0
0.777030890039 -0.00439237140399 0.0
0.698560390522 -0.00102670397378 0.0
0.754635446574 -0.00335281384401 0.0
0.546172970215 0.000246965336192 0.0
0.632212675165 -0.00239631538009 0.0
0.565264873785 -0.00030090676051 0.0
1.32360913403 -0.00610011569332 0.0
1.29251020034 -0.00960985425967 0.0
1.30585126163 -0.00882666944248 0.0
1.33014419638 -0.00686330225117 0.0
1.3595772736 -0.00469251567043 0.0
1.3678190226 -0.00429908915846 0.0
0.649061893383 -0.00281748103838 0.0
0.862996347159 -0.00785680074457 0.0
1.4178899973 -0.000150837781817 0.0
1.03773549434 -0.0516431692542 0.0
1.126689785 -0.000642096124691 0.0
1.19292101544 -0.000260675444802 0.0
1.04067473127 -0.0189554351906 0.0
0.525527286958 0.000138554390982 0.0
1.10151543053 -0.0748365504352 0.0
1.03516952836 -0.0660746773018 0.0
0.572983752994 -0.00120435633459 0.0
1.42809330857 -0.00250885035387 0.0
1.4237548875 -0.00282857907228 0.0
1.4311042741 -0.00211974537111 0.0
1.41795972115 -0.0030754189173 0.0
1.27604711367 -0.290057591305 0.0
1.41105532617 -0.00333559649307 0.0
1.43501957231 -0.00188552424847 0.0
1.40406910527 -0.00346585338786 0.0
1.43850940584 -0.00168100038287 0.0
1.44169999518 -0.00151629336297 0.0
1.19517987073 -0.01003998828 0.0
1.37321318135 -0.00425279300047 0.0
1.1072929874 -0.0157038767264 0.0
1.36299174943 -0.00453840219023 0.0
1.22916813842 -0.00885419567108 0.0
1.44465565453 -0.00140694716133 0.0
1.35163547266 -0.00480674048024 0.0
1.2580202179 -0.00781975029493 0.0
1.15530310673 -0.0118981077371 0.0
1.28256986587 -0.0070163263621 0.0
1.44731213833 -0.00133120963078 0.0
1.44806374761 -0.000996680771912 0.0
1.44785099114 -0.000376599667173 0.0
1.44503448569 0.000263108887256 0.0
1.44652111632 0.00029048734039 0.0
1.4477983757 0.000134034649681 0.0
1.16189265158 -0.00439267592665 0.0
0.759204668094 -0.010063095185 0.0
0.813404212945 -0.0171639650859 0.0
0.874094092488 -0.0226903332709 0.0
0.72698595312 -0.00893616356643 0.0
0.494515797864 -0.000274963684197 0.0
0.494433815013 -0.000299823533051 0.0
0.494831248373 -0.000410550736469 0.0
1.20793740764 -0.00849207014129 0.0
0.49587164955 -0.000495457543521 0.0
0.497472902048 -0.000543977657539 0.0
0.499386458049 -0.000571352748016 0.0
1.13083150799 0.000316744739791 0.0
1.21222842514 -0.0108365274741 0.0
0.501498548478 -0.000602968521566 0.0
1.13110054419 -2.13268336563e-06 0.0
0.503826335579 -0.000655443842751 0.0
0.506426073923 -0.000752839515986 0.0
0.509127839485 -0.000397976233884 0.0
0.512354509653 -0.000474855421274 0.0
1.11819139039 0.000120890925804 0.0
0.516121470452 -0.000552738499668 0.0
1.1180884092 0.000353250358023 0.0
0.502596349997 -0.000205234887988 0.0
0.520369242602 -0.000630462701545 0.0
1.11855590662 -0.000249421669713 0.0
0.504657951268 -0.000536859210316 0.0
1.12024577769 -0.000720825216221 0.0
0.501320829691 -0.000620068049172 0.0
0.525060703001 -0.000738640809565 0.0
1.12177583067 -0.000983393058035 0.0
0.502044032385 -0.000478837791671 0.0
0.515733373039 -0.000367237762561 0.0
1.1233928634 -0.00111957597633 0.0
0.698224976141 -0.00802834110126 0.0
1.12517527555 -0.0012521323942 0.0
1.127235784 -0.00143010226782 0.0
0.543734703686 -0.0006836840293 0.0
1.12950476196 -0.00163763985218 0.0
1.12954275775 -0.00202501793676 0.0
1.22935399772 -0.0264098720625 0.0
0.661452785583 -0.00545616412049 0.0
0.550717072048 -0.00111341075692 0.0
1.13076976997 -0.0021577064052 0.0
1.13438082751 -0.00247614085703 0.0
0.635008956501 -0.00420096824458 0.0
0.558225469556 -0.0011687753699 0.0
1.13834609185 -0.00276632058239 0.0
0.614908169552 -0.00338693721368 0.0
0.541589999267 -0.000616102650606 0.0
1.14264201902 -0.0030646541698 0.0
1.1445909685 -0.00332911535926 0.0
0.585020723719 -0.00241683124142 0.0
1.1561342163 -0.00488648828629 0.0
1.16251671037 -0.00424540575885 0.0
1.16886602566 -0.00465337890529 0.0
1.22472365146 -0.020581520318 0.0
1.17587946016 -0.0051578457617 0.0
1.21712938379 -0.0164598224835 0.0
1.18028591358 -0.00582964257199 0.0
1.20884611066 -0.0135354293044 0.0
1.1975764834 -0.0114530865786 0.0
1.2211158996 -0.0374144887641 0.0
1.19871865023 -0.0513743618218 0.0
1.18191085519 -0.0540817976509 0.0
1.19548779445 -0.0099511099314 0.0
1.22510375113 -0.0350744241444 0.0
1.22694735967 -0.0268178737463 0.0
1.20438106158 -0.0121408593851 0.0
1.17201669538 -0.00709265784463 0.0
1.21398695355 -0.0152835304235 0.0
1.16385252202 -0.00653204847253 0.0
1.22261307467 -0.0197693088263 0.0
1.15724321707 -0.00598696556091 0.0
0.609926713522 -0.00217642630192 0.0
1.15734555261 -0.00519685217601 0.0
0.6298767869 -0.00307730479272 0.0
0.567800102144 -0.00143386461038 0.0
0.701633954978 -0.00747285284535 0.0
1.13835275387 -0.00457619624646 0.0
0.652213573068 -0.00394605180355 0.0
0.564681895699 -0.0017266402432 0.0
1.13430406323 -0.00439418197224 0.0
1.13020876923 -0.00403581613661 0.0
0.682028377962 -0.00526206753042 0.0
0.557374486967 -0.00161543938402 0.0
1.12643921491 -0.00369527530597 0.0
1.44393157862 -0.000256026317054 0.0
1.12295367129 -0.00337140032626 0.0
1.1330887959 -0.00277189994062 0.0
0.527823020348 -0.000464758511196 0.0
1.13109469814 -0.00251667881428 0.0
1.12899796706 -0.00230723795628 0.0
1.1271374665 -0.00213474905863 0.0
1.1255144391 -0.00199657187361 0.0
1.12402601852 -0.00183345194719 0.0
1.12264434545 -0.00150018352242 0.0
1.12114734208 -0.00106937184963 0.0
1.12310872993 2.35443745683e-05 0.0
1.12140811467 -0.000174308499936 0.0
1.12206395961 -0.000263367149706 0.0
1.11922993888 -0.000688608933668 0.0
1.3826741642 -0.00399314443064 0.0
1.44714130513 -0.000424673603271 0.0
0.536719839893 -0.00137683923542 0.0
0.527218364442 -0.0013848600068 0.0
0.522632177146 -0.00126773615983 0.0
0.518516211299 -0.00119595154824 0.0
0.514884252743 -0.00114103635958 0.0
1.44729103107 -0.000802919560934 0.0
0.511938576969 -0.000739325984565 0.0
0.509219898295 -0.000793620115451 0.0
0.506706021514 -0.000730076545368 0.0
0.504458250015 -0.000688985810785 0.0
0.50241120368 -0.000661480084343 0.0
0.500589286174 -0.000630259512977 0.0
1.44712527822 -0.00132858556081 0.0
0.499164010923 -0.000552562178442 0.0
0.498344689817 -0.000446348209135 0.0
0.498184331593 -0.000343255379933 0.0
0.501613473126 3.89853451985e-05 0.0
1.44463652223 -0.00147154391361 0.0
1.44172633691 -0.00155655746184 0.0
1.31104790296 -0.00705900864924 0.0
1.43860248179 -0.00170671842231 0.0
1.33240901107 -0.00509820225689 0.0
0.895982876645 -0.000124212804759 0.0
1.43522049609 -0.00189833712745 0.0
1.00662325874 -0.0125071865868 0.0
1.08312023428 -0.0176318274278 0.0
1.44384352396 -0.000216292852871 0.0
1.43147458928 -0.00211985620586 0.0
1.21458352283 -0.101591076762 0.0
1.42748593628 -0.0023455384444 0.0
1.43752071768 -0.00197473567823 0.0
1.38931823237 -0.00342609051288 0.0
1.43088743131 -0.00218109012486 0.0
1.42344492773 -0.00239274218106 0.0
1.44261667483 -0.000407973517831 0.0
1.41487096097 -0.0026179994639 0.0
1.4062575253 -0.0027319274946 0.0
1.13407624606 -0.0105880233098 0.0
1.17614255163 -0.00881681299935 0.0
1.38023388548 -0.00314316402183 0.0
1.34413702823 -0.0038209393311 0.0
1.29169164416 -0.00568881775372 0.0
1.36936374172 -0.00337183007637 0.0
1.21165127672 -0.007817995497 0.0
1.29774868293 -0.00149711897242 0.0