# vtk DataFile Version 2.0
2D Simulation Python
ASCII
DATASET UNSTRUCTURED_GRID
FIELD FieldData 1
NODES 1 2 int
2790 1289

POINTS 2790 double
0.0 1.0 0.0
1.725 1.0 0.0
8.275 1.0 0.0
20.0 1.0 0.0
20.0 0.0 0.0
0.0 0.0 0.0
0.1916666666663293 1.0 0.0
0.3833333333324708 1.0 0.0
0.574999999998553 1.0 0.0
0.7666666666645966 1.0 0.0
0.9583333333312576 1.0 0.0
1.149999999998384 1.0 0.0
1.341666666665662 1.0 0.0
1.533333333332819 1.0 0.0
0.0958333333331406 1.0 0.0
0.2874999999994247 1.0 0.0
0.4791666666655395 1.0 0.0
0.6708333333315728 1.0 0.0
0.8624999999976626 1.0 0.0
1.054166666664886 1.0 0.0
1.245833333332057 1.0 0.0
1.437499999999343 1.0 0.0
1.629166666666455 1.0 0.0
1.92348484848444 1.0 0.0
2.121969696968978 1.0 0.0
2.320454545453434 1.0 0.0
2.518939393937826 1.0 0.0
2.717424242422235 1.0 0.0
2.915909090906411 1.0 0.0
3.1143939393908 1.0 0.0
3.312878787875129 1.0 0.0
3.511363636359531 1.0 0.0
3.709848484843827 1.0 0.0
3.90833333332816 1.0 0.0
4.106818181812215 1.0 0.0
4.305303030296804 1.0 0.0
4.503787878781365 1.0 0.0
4.702272727265711 1.0 0.0
4.900757575750005 1.0 0.0
5.099242424235156 1.0 0.0
5.297727272720327 1.0 0.0
5.496212121205663 1.0 0.0
5.694696969690998 1.0 0.0
5.89318181817668 1.0 0.0
6.09166666666213 1.0 0.0
6.290151515147423 1.0 0.0
6.488636363633031 1.0 0.0
6.687121212118713 1.0 0.0
6.885606060604342 1.0 0.0
7.084090909089381 1.0 0.0
7.282575757574369 1.0 0.0
7.481060606059355 1.0 0.0
7.679545454544343 1.0 0.0
7.878030303029329 1.0 0.0
8.076515151514705 1.0 0.0
1.824242424242199 1.0 0.0
2.022727272726695 1.0 0.0
2.221212121211181 1.0 0.0
2.41969696969563 1.0 0.0
2.618181818180092 1.0 0.0
2.816666666664316 1.0 0.0
3.015151515148624 1.0 0.0
3.213636363633039 1.0 0.0
3.412121212117267 1.0 0.0
3.610606060601583 1.0 0.0
3.809090909085975 1.0 0.0
4.007575757570153 1.0 0.0
4.206060606054539 1.0 0.0
4.404545454539001 1.0 0.0
4.603030303023853 1.0 0.0
4.801515151507715 1.0 0.0
4.999999999992074 1.0 0.0
5.198484848477777 1.0 0.0
5.396969696963081 1.0 0.0
5.595454545448261 1.0 0.0
5.793939393933949 1.0 0.0
5.992424242419331 1.0 0.0
6.190909090904785 1.0 0.0
6.389393939390224 1.0 0.0
6.587878787875795 1.0 0.0
6.786363636361617 1.0 0.0
6.984848484846598 1.0 0.0
7.183333333331875 1.0 0.0
7.381818181816625 1.0 0.0
7.580303030301849 1.0 0.0
7.778787878786936 1.0 0.0
7.977272727272114 1.0 0.0
8.175757575757618 1.0 0.0
8.473728813558951 1.0 0.0
8.672457627118133 1.0 0.0
8.871186440676855 1.0 0.0
9.069915254236154 1.0 0.0
9.268644067794812 1.0 0.0
9.467372881354057 1.0 0.0
9.666101694912944 1.0 0.0
9.864830508471961 1.0 0.0
10.06355932203108 1.0 0.0
10.26228813558986 1.0 0.0
10.46101694914916 1.0 0.0
10.65974576270777 1.0 0.0
10.85847457626706 1.0 0.0
11.05720338982589 1.0 0.0
11.25593220338497 1.0 0.0
11.45466101694402 1.0 0.0
11.65338983050287 1.0 0.0
11.85211864406215 1.0 0.0
12.05084745762035 1.0 0.0
12.24957627117938 1.0 0.0
12.44830508473794 1.0 0.0
12.64703389829659 1.0 0.0
12.84576271185557 1.0 0.0
13.04449152541379 1.0 0.0
13.24322033897301 1.0 0.0
13.44194915253121 1.0 0.0
13.6406779660903 1.0 0.0
13.83940677964874 1.0 0.0
14.03813559320751 1.0 0.0
14.23686440676681 1.0 0.0
14.43559322032663 1.0 0.0
14.63432203388679 1.0 0.0
14.8330508474463 1.0 0.0
15.0317796610067 1.0 0.0
15.23050847456608 1.0 0.0
15.42923728812645 1.0 0.0
15.62796610168606 1.0 0.0
15.82669491524602 1.0 0.0
16.02542372880584 1.0 0.0
16.22415254236431 1.0 0.0
16.42288135592496 1.0 0.0
16.62161016948498 1.0 0.0
16.82033898304518 1.0 0.0
17.01906779660567 1.0 0.0
17.2177966101654 1.0 0.0
17.41652542372565 1.0 0.0
17.61525423728425 1.0 0.0
17.81398305084494 1.0 0.0
18.01271186440355 1.0 0.0
18.21144067796387 1.0 0.0
18.41016949152309 1.0 0.0
18.6088983050827 1.0 0.0
18.80762711864282 1.0 0.0
19.00635593220153 1.0 0.0
19.20508474576211 1.0 0.0
19.40381355932072 1.0 0.0
19.60254237288117 1.0 0.0
19.80127118644013 1.0 0.0
8.374364406779554 1.0 0.0
8.573093220338519 1.0 0.0
8.771822033897509 1.0 0.0
8.970550847456504 1.0 0.0
9.169279661015429 1.0 0.0
9.368008474574502 1.0 0.0
9.566737288133496 1.0 0.0
9.765466101692677 1.0 0.0
9.964194915251602 1.0 0.0
10.16292372881015 1.0 0.0
10.36165254236967 1.0 0.0
10.56038135592849 1.0 0.0
10.75911016948728 1.0 0.0
10.95783898304648 1.0 0.0
11.15656779660554 1.0 0.0
11.35529661016447 1.0 0.0
11.55402542372345 1.0 0.0
11.75275423728253 1.0 0.0
11.95148305084111 1.0 0.0
12.15021186439983 1.0 0.0
12.34894067795883 1.0 0.0
12.54766949151722 1.0 0.0
12.74639830507616 1.0 0.0
12.94512711863486 1.0 0.0
13.14385593219357 1.0 0.0
13.34258474575207 1.0 0.0
13.54131355931069 1.0 0.0
13.7400423728695 1.0 0.0
13.93877118642822 1.0 0.0
14.13749999998697 1.0 0.0
14.33622881354686 1.0 0.0
14.53495762710678 1.0 0.0
14.73368644066656 1.0 0.0
14.93241525422655 1.0 0.0
15.13114406778625 1.0 0.0
15.32987288134641 1.0 0.0
15.52860169490635 1.0 0.0
15.7273305084661 1.0 0.0
15.9260593220261 1.0 0.0
16.12478813558534 1.0 0.0
16.32351694914468 1.0 0.0
16.52224576270527 1.0 0.0
16.72097457626511 1.0 0.0
16.91970338982543 1.0 0.0
17.11843220338561 1.0 0.0
17.31716101694539 1.0 0.0
17.51588983050497 1.0 0.0
17.71461864406449 1.0 0.0
17.91334745762401 1.0 0.0
18.11207627118383 1.0 0.0
18.31080508474307 1.0 0.0
18.50953389830311 1.0 0.0
18.70826271186271 1.0 0.0
18.90699152542239 1.0 0.0
19.10572033898203 1.0 0.0
19.30444915254171 1.0 0.0
19.50317796610107 1.0 0.0
19.70190677966065 1.0 0.0
19.90063559322003 1.0 0.0
20.0 0.7999999999999998 0.0
20.0 0.6000000000013869 0.0
20.0 0.4000000000016644 0.0
20.0 0.2000000000008322 0.0
20.0 0.9000000000000369 0.0
20.0 0.7000000000005904 0.0
20.0 0.5000000000017577 0.0
20.0 0.3000000000012483 0.0
20.0 0.1000000000004161 0.0
19.8 0.0 0.0
19.6 0.0 0.0
19.4 0.0 0.0
19.2 0.0 0.0
19.0 0.0 0.0
18.8 0.0 0.0
18.6 0.0 0.0
18.4 0.0 0.0
18.2 0.0 0.0
18.0 0.0 0.0
17.8 0.0 0.0
17.59999999999999 0.0 0.0
17.4 0.0 0.0
17.2 0.0 0.0
16.99999999999999 0.0 0.0
16.79999999999999 0.0 0.0
16.59999999999999 0.0 0.0
16.4 0.0 0.0
16.2 0.0 0.0
15.99999999999999 0.0 0.0
15.79999999999999 0.0 0.0
15.59999999999999 0.0 0.0
15.4 0.0 0.0
15.2 0.0 0.0
15.0 0.0 0.0
14.79999999999999 0.0 0.0
14.59999999999999 0.0 0.0
14.4 0.0 0.0
14.2 0.0 0.0
13.99999999999999 0.0 0.0
13.8 0.0 0.0
13.59999999999999 0.0 0.0
13.4 0.0 0.0
13.2 0.0 0.0
13.0 0.0 0.0
12.79999999999999 0.0 0.0
12.6 0.0 0.0
12.4 0.0 0.0
12.2 0.0 0.0
11.99999999999999 0.0 0.0
11.8 0.0 0.0
11.6 0.0 0.0
11.4 0.0 0.0
11.2 0.0 0.0
11.0 0.0 0.0
10.8 0.0 0.0
10.6 0.0 0.0
10.4 0.0 0.0
10.2 0.0 0.0
9.999999999999998 0.0 0.0
9.799999999999995 0.0 0.0
9.599999999999998 0.0 0.0
9.399999999999997 0.0 0.0
9.199999999999998 0.0 0.0
8.999999999999996 0.0 0.0
8.799999999999997 0.0 0.0
8.599999999999996 0.0 0.0
8.399999999999999 0.0 0.0
8.199999999999996 0.0 0.0
7.999999999999998 0.0 0.0
7.799999999999997 0.0 0.0
7.599999999999998 0.0 0.0
7.399999999999999 0.0 0.0
7.199999999999998 0.0 0.0
6.999999999999995 0.0 0.0
6.799999999999995 0.0 0.0
6.599999999999998 0.0 0.0
6.399999999999997 0.0 0.0
6.199999999999996 0.0 0.0
5.999999999999998 0.0 0.0
5.799999999999999 0.0 0.0
5.599999999999996 0.0 0.0
5.399999999999995 0.0 0.0
5.199999999999996 0.0 0.0
4.999999999999998 0.0 0.0
4.799999999999997 0.0 0.0
4.599999999999998 0.0 0.0
4.399999999999999 0.0 0.0
4.199999999999999 0.0 0.0
3.999999999999996 0.0 0.0
3.799999999999997 0.0 0.0
3.599999999999998 0.0 0.0
3.399999999999999 0.0 0.0
3.199999999999999 0.0 0.0
3.0 0.0 0.0
2.800000000000001 0.0 0.0
2.599999999999998 0.0 0.0
2.399999999999999 0.0 0.0
2.199999999999996 0.0 0.0
1.999999999999996 0.0 0.0
1.800000000000001 0.0 0.0
1.599999999999998 0.0 0.0
1.399999999999999 0.0 0.0
1.200000000000003 0.0 0.0
1.0 0.0 0.0
0.7999999999999972 0.0 0.0
0.5999999999999979 0.0 0.0
0.3999999999999986 0.0 0.0
0.1999999999999993 0.0 0.0
19.90000000000022 0.0 0.0
19.69999999999997 0.0 0.0
19.49999999999987 0.0 0.0
19.30000000000005 0.0 0.0
19.09999999999999 0.0 0.0
18.89999999999987 0.0 0.0
18.7 0.0 0.0
18.49999999999999 0.0 0.0
18.30000000000001 0.0 0.0
18.09999999999987 0.0 0.0
17.90000000000013 0.0 0.0
17.7 0.0 0.0
17.49999999999987 0.0 0.0
17.30000000000025 0.0 0.0
17.10000000000001 0.0 0.0
16.90000000000005 0.0 0.0
16.70000000000003 0.0 0.0
16.50000000000006 0.0 0.0
16.29999999999997 0.0 0.0
16.09999999999999 0.0 0.0
15.89999999999987 0.0 0.0
15.69999999999999 0.0 0.0
15.49999999999999 0.0 0.0
15.3 0.0 0.0
15.10000000000003 0.0 0.0
14.90000000000005 0.0 0.0
14.69999999999992 0.0 0.0
14.49999999999996 0.0 0.0
14.29999999999999 0.0 0.0
14.10000000000008 0.0 0.0
13.89999999999988 0.0 0.0
13.70000000000003 0.0 0.0
13.50000000000004 0.0 0.0
13.29999999999992 0.0 0.0
13.09999999999995 0.0 0.0
12.90000000000016 0.0 0.0
12.7 0.0 0.0
12.49999999999986 0.0 0.0
12.30000000000003 0.0 0.0
12.10000000000016 0.0 0.0
11.90000000000005 0.0 0.0
11.69999999999994 0.0 0.0
11.49999999999993 0.0 0.0
11.30000000000005 0.0 0.0
11.0999999999999 0.0 0.0
10.90000000000004 0.0 0.0
10.69999999999995 0.0 0.0
10.50000000000012 0.0 0.0
10.29999999999999 0.0 0.0
10.09999999999993 0.0 0.0
9.900000000000077 0.0 0.0
9.699999999999969 0.0 0.0
9.499999999999982 0.0 0.0
9.299999999999969 0.0 0.0
9.100000000000108 0.0 0.0
8.899999999999972 0.0 0.0
8.699999999999958 0.0 0.0
8.499999999999998 0.0 0.0
8.30000000000003 0.0 0.0
8.099999999999977 0.0 0.0
7.899999999999974 0.0 0.0
7.700000000000166 0.0 0.0
7.499999999999854 0.0 0.0
7.299999999999997 0.0 0.0
7.100000000000019 0.0 0.0
6.900000000000002 0.0 0.0
6.699999999999974 0.0 0.0
6.500000000000037 0.0 0.0
6.299999999999981 0.0 0.0
6.100000000000014 0.0 0.0
5.899999999999949 0.0 0.0
5.700000000000049 0.0 0.0
5.499999999999956 0.0 0.0
5.300000000000118 0.0 0.0
5.100000000000005 0.0 0.0
4.900000000000109 0.0 0.0
4.699999999999982 0.0 0.0
4.499999999999936 0.0 0.0
4.300000000000137 0.0 0.0
4.100000000000012 0.0 0.0
3.899999999999888 0.0 0.0
3.69999999999974 0.0 0.0
3.500000000000046 0.0 0.0
3.299999999999965 0.0 0.0
3.099999999999817 0.0 0.0
2.900000000000066 0.0 0.0
2.699999999999793 0.0 0.0
2.500000000000064 0.0 0.0
2.299999999999823 0.0 0.0
[...]
POINT_DATA 2790
VECTORS vector double
1.0 0.0 0.0
0.0 0.0 0.0
0.0 0.0 0.0
0.0 0.0 0.0
1.5789256757 0.0 0.0
1.0 0.0 0.0
0.0 0.0 0.0
0.0 0.0 0.0
0.0 0.0 0.0
0.0 0.0 0.0
0.0 0.0 0.0
0.0 0.0 0.0
0.0 0.0 0.0
0.0 0.0 0.0
0.0 0.0 0.0
0.0 0.0 0.0
0.0 0.0 0.0
0.0 0.0 0.0
0.0 0.0 0.0
0.0 0.0 0.0
0.0 0.0 0.0
0.0 0.0 0.0
0.0 0.0 0.0
0.0 0.0 0.0
0.0 0.0 0.0
0.0 0.0 0.0
0.0 0.0 0.0
0.0 0.0 0.0
0.0 0.0 0.0
0.0 0.0 0.0
0.0 0.0 0.0
0.0 0.0 0.0
0.0 0.0 0.0
0.0 0.0 0.0
0.0 0.0 0.0
0.0 0.0 0.0
0.0 0.0 0.0
0.0 0.0 0.0
0.0 0.0 0.0
0.0 0.0 0.0
0.0 0.0 0.0
0.0 0.0 0.0
0.0 0.0 0.0
0.0 0.0 0.0
0.0 0.0 0.0
0.0 0.0 0.0
0.0 0.0 0.0
0.0 0.0 0.0
0.0 0.0 0.0
0.0 0.0 0.0
0.0 0.0 0.0
0.0 0.0 0.0
0.0 0.0 0.0
0.0 0.0 0.0
0.0 0.0 0.0
0.0 0.0 0.0
0.0 0.0 0.0
0.0 0.0 0.0
0.0 0.0 0.0
0.0 0.0 0.0
0.0 0.0 0.0
0.0 0.0 0.0
0.0 0.0 0.0
0.0 0.0 0.0
0.0 0.0 0.0
0.0 0.0 0.0
0.0 0.0 0.0
0.0 0.0 0.0
0.0 0.0 0.0
0.0 0.0 0.0
0.0 0.0 0.0
0.0 0.0 0.0
0.0 0.0 0.0
0.0 0.0 0.0
0.0 0.0 0.0
0.0 0.0 0.0
0.0 0.0 0.0
0.0 0.0 0.0
0.0 0.0 0.0
0.0 0.0 0.0
0.0 0.0 0.0
0.0 0.0 0.0
0.0 0.0 0.0
0.0 0.0 0.0
0.0 0.0 0.0
0.0 0.0 0.0
0.0 0.0 0.0
0.0 0.0 0.0
0.0 0.0 0.0
0.0 0.0 0.0
0.0 0.0 0.0
0.0 0.0 0.0
0.0 0.0 0.0
0.0 0.0 0.0
0.0 0.0 0.0
0.0 0.0 0.0
0.0 0.0 0.0
0.0 0.0 0.0
0.0 0.0 0.0
0.0 0.0 0.0
0.0 0.0 0.0
0.0 0.0 0.0
0.0 0.0 0.0
0.0 0.0 0.0
0.0 0.0 0.0
0.0 0.0 0.0
0.0 0.0 0.0
0.0 0.0 0.0
0.0 0.0 0.0
0.0 0.0 0.0
0.0 0.0 0.0
0.0 0.0 0.0
0.0 0.0 0.0
0.0 0.0 0.0
0.0 0.0 0.0
0.0 0.0 0.0
0.0 0.0 0.0
0.0 0.0 0.0
0.0 0.0 0.0
0.0 0.0 0.0
0.0 0.0 0.0
0.0 0.0 0.0
0.0 0.0 0.0
0.0 0.0 0.0
0.0 0.0 0.0
0.0 0.0 0.0
0.0 0.0 0.0
0.0 0.0 0.0
0.0 0.0 0.0
0.0 0.0 0.0
0.0 0.0 0.0
0.0 0.0 0.0
0.0 0.0 0.0
0.0 0.0 0.0
0.0 0.0 0.0
0.0 0.0 0.0
0.0 0.0 0.0
0.0 0.0 0.0
0.0 0.0 0.0
0.0 0.0 0.0
0.0 0.0 0.0
0.0 0.0 0.0
0.0 0.0 0.0
0.0 0.0 0.0
0.0 0.0 0.0
0.0 0.0 0.0
0.0 0.0 0.0
0.0 0.0 0.0
0.0 0.0 0.0
0.0 0.0 0.0
0.0 0.0 0.0
0.0 0.0 0.0
0.0 0.0 0.0
0.0 0.0 0.0
0.0 0.0 0.0
0.0 0.0 0.0
0.0 0.0 0.0
0.0 0.0 0.0
0.0 0.0 0.0
0.0 0.0 0.0
0.0 0.0 0.0
0.0 0.0 0.0
0.0 0.0 0.0
0.0 0.0 0.0
0.0 0.0 0.0
0.0 0.0 0.0
0.0 0.0 0.0
0.0 0.0 0.0
0.0 0.0 0.0
0.0 0.0 0.0
0.0 0.0 0.0
0.0 0.0 0.0
0.0 0.0 0.0
0.0 0.0 0.0
0.0 0.0 0.0
0.0 0.0 0.0
0.0 0.0 0.0
0.0 0.0 0.0
0.0 0.0 0.0
0.0 0.0 0.0
0.0 0.0 0.0
0.0 0.0 0.0
0.0 0.0 0.0
0.0 0.0 0.0
0.0 0.0 0.0
0.0 0.0 0.0
0.0 0.0 0.0
0.0 0.0 0.0
0.0 0.0 0.0
0.0 0.0 0.0
0.0 0.0 0.0
0.0 0.0 0.0
0.0 0.0 0.0
0.0 0.0 0.0
0.0 0.0 0.0
0.0 0.0 0.0
0.0 0.0 0.0
0.0 0.0 0.0
0.0 0.0 0.0
0.0 0.0 0.0
0.0 0.0 0.0
0.0 0.0 0.0
0.0 0.0 0.0
0.0 0.0 0.0
0.0 0.0 0.0
0.543557146081 5.13049901013e-05 0.0
0.959581800209 6.85987652417e-05 0.0
1.25070916451 -0.00036832808593 0.0
1.44222687788 -0.000540605459023 0.0
0.277205091878 -0.000188371358751 0.0
0.757484530087 0.00128879147868 0.0
1.11028344987 7.14613691145e-05 0.0
1.34929091979 -0.000750556069787 0.0
1.50989056747 -0.000287986012668 0.0
1.57790049224 0.0 0.0
1.57785430671 0.0 0.0
1.57794821806 0.0 0.0
1.57811075327 0.0 0.0
1.57730618519 0.0 0.0
1.57809954834 0.0 0.0
1.57787945065 0.0 0.0
1.57668354602 0.0 0.0
1.57642605169 0.0 0.0
1.57545559615 0.0 0.0
1.57341614385 0.0 0.0
1.5723565453 0.0 0.0
1.57063755476 0.0 0.0
1.56809934795 0.0 0.0
1.56515386621 0.0 0.0
1.56306686452 0.0 0.0
1.5620487821 0.0 0.0
1.55905818971 0.0 0.0
1.55683183109 0.0 0.0
1.55570328032 0.0 0.0
1.55251638848 0.0 0.0
1.55009081384 0.0 0.0
1.54874639647 0.0 0.0
1.54530568766 0.0 0.0
1.54260964424 0.0 0.0
1.54101668406 0.0 0.0
1.5372865179 0.0 0.0
1.53428784868 0.0 0.0
1.53242068922 0.0 0.0
1.52837594828 0.0 0.0
1.52505226452 0.0 0.0
1.52289487013 0.0 0.0
1.51852373082 0.0 0.0
1.51486360666 0.0 0.0
1.51241633493 0.0 0.0
1.50772078944 0.0 0.0
1.50372511076 0.0 0.0
1.50100457634 0.0 0.0
1.49575739412 0.0 0.0
1.49118038953 0.0 0.0
1.48821168526 0.0 0.0
1.48310868158 0.0 0.0
1.47833035631 0.0 0.0
1.47511512955 0.0 0.0
1.46976383986 0.0 0.0
1.46473008298 0.0 0.0
1.4613016746 0.0 0.0
1.45574217771 0.0 0.0
1.45057559178 0.0 0.0
1.44685616012 0.0 0.0
1.44112184594 0.0 0.0
1.43588043633 0.0 0.0
1.43177081186 0.0 0.0
1.42865446911 0.0 0.0
1.42222234872 0.0 0.0
1.41564985232 0.0 0.0
1.40994104747 0.0 0.0
1.40517763256 0.0 0.0
1.39896249978 0.0 0.0
1.39306982798 0.0 0.0
1.38862639239 0.0 0.0
1.38211656479 0.0 0.0
1.37591113525 0.0 0.0
1.37118742723 0.0 0.0
1.36441210606 0.0 0.0
1.35796196611 0.0 0.0
1.35292242223 0.0 0.0
1.34589041422 0.0 0.0
1.33919585343 0.0 0.0
1.33358959565 0.0 0.0
1.32843556292 0.0 0.0
1.32010209492 0.0 0.0
1.31321126585 0.0 0.0
1.30554920793 0.0 0.0
1.2970427897 0.0 0.0
1.28998060512 0.0 0.0
1.28096375921 0.0 0.0
1.27215870804 0.0 0.0
1.26406938707 0.0 0.0
1.25606960223 0.0 0.0
1.24697996278 0.0 0.0
1.23819674122 0.0 0.0
1.2293292069 0.0 0.0
1.21971938435 0.0 0.0
1.2101421986 0.0 0.0
1.20020348466 0.0 0.0
1.18987286289 0.0 0.0
1.17918387745 0.0 0.0
1.16788369107 0.0 0.0
1.1564176552 0.0 0.0
1.14405722532 0.0 0.0
1.13036529856 0.0 0.0
1.11625368774 0.0 0.0
1.10056141377 0.0 0.0
1.08212973697 0.0 0.0
1.06288684803 0.0 0.0
1.04119989232 0.0 0.0
1.01910579945 0.0 0.0
1.00409372609 0.0 0.0
1.57831295512 0.0 0.0
1.5774302602 0.0 0.0
1.57860984282 0.0 0.0
1.5772900088 0.0 0.0
1.57710993627 0.0 0.0
1.57739337713 0.0 0.0
1.5786954485 0.0 0.0
1.57673411331 0.0 0.0
1.57599132393 0.0 0.0
1.57662620159 0.0 0.0
1.5738216777 0.0 0.0
1.57227954461 0.0 0.0
1.57213960393 0.0 0.0
1.56869038013 0.0 0.0
1.56665242027 0.0 0.0
1.56351225868 0.0 0.0
1.56274066219 0.0 0.0
1.56063823402 0.0 0.0
1.55729715622 0.0 0.0
1.55642958809 0.0 0.0
1.55417086196 0.0 0.0
1.55064167475 0.0 0.0
1.54957166013 0.0 0.0
1.54706279485 0.0 0.0
1.54326142212 0.0 0.0
1.54195268804 0.0 0.0
1.53916008469 0.0 0.0
1.53505094955 0.0 0.0
1.53347804459 0.0 0.0
1.53037653749 0.0 0.0
1.52593442224 0.0 0.0
1.52407848011 0.0 0.0
1.52065682688 0.0 0.0
1.51586925553 0.0 0.0
1.51372248948 0.0 0.0
1.51000431858 0.0 0.0
1.50490639067 0.0 0.0
1.50242431981 0.0 0.0
1.49831663723 0.0 0.0
1.49264892458 0.0 0.0
1.48945107315 0.0 0.0
1.48576571021 0.0 0.0
1.47988441186 0.0 0.0
1.47644354962 0.0 0.0
1.47252428416 0.0 0.0
1.46638204987 0.0 0.0
1.4627076445 0.0 0.0
1.45857719396 0.0 0.0
1.45229297562 0.0 0.0
1.44835361723 0.0 0.0
1.44402194705 0.0 0.0
1.43768231381 0.0 0.0
1.43348376553 0.0 0.0
1.42904424341 0.0 0.0
1.42455986475 0.0 0.0
1.4186571443 0.0 0.0
1.41187063902 0.0 0.0
1.40722119576 0.0 0.0
1.40204428427 0.0 0.0
1.39522467346 0.0 0.0
1.39044290614 0.0 0.0
1.38536545557 0.0 0.0
1.37808079186 0.0 0.0
1.3731237017 0.0 0.0
1.36774854495 0.0 0.0
1.36026698429 0.0 0.0
1.35501045027 0.0 0.0
1.34933344024 0.0 0.0
1.34170301317 0.0 0.0
1.33599513017 0.0 0.0
1.32986046025 0.0 0.0
1.32333290646 0.0 0.0
1.31600022805 0.0 0.0
1.30872521647 0.0 0.0
1.30072405546 0.0 0.0
1.29294417252 0.0 0.0
1.28421458857 0.0 0.0
1.27610858274 0.0 0.0
1.26761638667 0.0 0.0
1.25986514406 0.0 0.0
1.2510322034 0.0 0.0
1.2421589547 0.0 0.0
1.23351998974 0.0 0.0
1.22413029164 0.0 0.0
1.21464902693 0.0 0.0
1.20492486415 0.0 0.0
1.19478221543 0.0 0.0
1.18443815971 0.0 0.0
1.1733001988 0.0 0.0
1.16206258066 0.0 0.0
1.15032486215 0.0 0.0
1.1370471286 0.0 0.0
1.12335473298 0.0 0.0
1.10866001794 0.0 0.0
1.09126208622 0.0 0.0
1.07254230987 0.0 0.0
1.0525050396 0.0 0.0
1.02992420276 0.0 0.0
1.01117661358 0.0 0.0
0.999791450258 0.0 0.0
1.0 0.0 0.0
1.0 0.0 0.0
1.0 0.0 0.0
1.0 0.0 0.0
1.0 0.0 0.0
1.0 0.0 0.0
1.0 0.0 0.0
1.0 0.0 0.0
1.0 0.0 0.0
1.16849061529 -0.0695382793018 0.0
1.2237422962 -0.04561906804 0.0
1.22675483293 -0.0313102453161 0.0
1.08161334235 -0.000104417405415 0.0
1.11841104019 -0.000233607395017 0.0
1.11779095809 -0.000416836595629 0.0
1.11588743765 -0.000797506327486 0.0
1.11536107314 -0.00114510818407 0.0
1.11700144988 -0.00136351158691 0.0
1.1185392056 -0.00152275080424 0.0
1.12027977525 -0.00167145851358 0.0
1.12228833189 -0.00184704642173 0.0
1.12459521062 -0.00205708677469 0.0
1.12721545618 -0.00229544075534 0.0
1.13016148367 -0.00255742547265 0.0
1.08493406985 -0.00256529403355 0.0
1.08904573563 -0.00273407578383 0.0
1.09345001704 -0.00300929936075 0.0
1.09809030814 -0.00321418280856 0.0
1.15465679084 -0.00456959592325 0.0
1.21893979873 -0.0230474047332 0.0
1.12557254842 -0.00455976582678 0.0
1.10311250742 -0.00335669853487 0.0
1.20503734641 -0.017666962882 0.0
1.13300516986 -0.00504756594188 0.0
1.14466943628 -0.00397812843442 0.0
1.19113158473 -0.0140036170579 0.0
1.14152680229 -0.00550912838688 0.0
1.17827029496 -0.0113921345731 0.0
1.17948597713 -0.0068314076312 0.0
1.19075942055 -0.0106530900685 0.0
1.15082100331 -0.00445240482076 0.0
1.16706040008 -0.00996256856631 0.0
0.876193142116 -0.000794030130126 0.0
1.20161549083 -0.154821799255 0.0
1.29242738631 -0.0108519608556 0.0
1.28072573027 -0.0127225881123 0.0
1.31041080884 -0.00736626817746 0.0
1.26655658721 -0.01500112328 0.0
1.31105364853 -0.00658253050154 0.0
1.21739483918 -0.0212903392172 0.0
1.24636930324 -0.0178392859318 0.0
1.31322305897 -0.0060270224879 0.0
1.31479424731 -0.00557433955126 0.0
1.31760288509 -0.00476766995884 0.0
1.31842896826 -0.00444546083023 0.0
1.31893813151 -0.00420284737582 0.0
1.31940542058 -0.00392072083372 0.0
1.31963616551 -0.00363004969016 0.0
1.31044606829 -0.00338494055918 0.0
1.31021090627 -0.00302644522888 0.0
1.31010298699 -0.00273092079 0.0
1.20706581663 -0.0558822137913 0.0
1.3098875503 -0.00245207925172 0.0
1.30972362696 -0.00220895204235 0.0
1.30963362992 -0.00199946970418 0.0
1.17600805173 -0.0260835418544 0.0
1.30961529472 -0.00180858561858 0.0
1.13452644426 -0.0295369516974 0.0
1.12748989711 -0.0355036201113 0.0
1.30773884749 -0.00159157180694 0.0
1.30747900027 -0.00139871833329 0.0
0.83278674146 -0.000277219424267 0.0
1.30658250535 -0.000884212766776 0.0
0.832647588923 -0.000231992756597 0.0
0.96697018788 -0.00716263246268 0.0
0.986689588849 -0.00851514509885 0.0
0.926038725144 -0.00311397564329 0.0
1.08149247454 -0.0194856255742 0.0
1.01079628985 -0.0108473069863 0.0
0.913534696421 -0.00347481822936 0.0
1.04138410556 -0.0144005718147 0.0
0.90326731588 -0.00322501257055 0.0
0.894204304821 -0.00284350548016 0.0
0.886017766993 -0.00217318355644 0.0
0.879325754571 -0.0023598163352 0.0
0.873091643631 -0.00223127005682 0.0
0.867238112068 -0.00206322636289 0.0
0.861875568435 -0.00190894462827 0.0
0.857126661127 -0.00167035971577 0.0
0.852748599663 -0.00154524860464 0.0
0.848916790419 -0.00136894238995 0.0
0.845449542944 -0.00122425176767 0.0
0.842339844665 -0.00111202661669 0.0
0.839540251093 -0.00102133690714 0.0
1.31040412037 -0.000317026944843 0.0
0.837018393892 -0.000920495568177 0.0
0.834780872723 -0.000829827616147 0.0
0.833042027225 -0.000577799045485 0.0
0.83187011426 -0.000333909269873 0.0
1.3277650284 -0.000198860211933 0.0
1.0318646924 -0.03505915798 0.0
1.3333053142 -2.67255777382e-05 0.0
1.31716851934 -0.00508738760622 0.0
1.31194010729 -0.00853212294744 0.0
1.30340606762 -0.00972782703754 0.0
1.32879703185 -0.00537322728271 0.0
0.830040174994 -0.00333369799684 0.0
0.870489462148 -0.00226872281998 0.0
0.887666122777 -0.00363298072412 0.0
0.897146247823 -0.00767674423217 0.0
1.171740413 -0.0711094430589 0.0
1.02900922664 -0.0262015777715 0.0
1.33538595123 -0.000285552930084 0.0
1.38385959813 -0.00327530398982 0.0
1.38059274461 -0.003559892621 0.0
1.13789416402 -0.021100780989 0.0
1.37355127454 -0.00318595108033 0.0
1.07411613275 -0.0285543258283 0.0
1.37678659603 -0.00381558189991 0.0
1.37549481162 -0.00287260230883 0.0
1.37712961018 -0.00257994135059 0.0
1.36798504009 -0.00408400719124 0.0
0.940304902904 -0.0152759201525 0.0
1.37860643688 -0.00231468835847 0.0
1.36416337587 -0.0042108623767 0.0
1.37997704122 -0.00208171311338 0.0
1.38128029803 -0.0018807884877 0.0
1.1842053212 -0.0172818823515 0.0
1.38251279902 -0.00168927955618 0.0
1.37340330421 -0.0015265144995 0.0
1.42191495466 -0.00120466026999 0.0
0.6095852781 0.000102971231948 0.0
1.35361345414 -0.00494484881626 0.0
1.41874046115 -0.00069819068001 0.0
0.625088820755 6.63869388511e-05 0.0
0.584071276828 0.000368596959726 0.0
1.41863649366 -0.0002612985163 0.0
0.608255025628 0.000109116349613 0.0
1.34921483809 -0.00526788423909 0.0
1.2205117587 -0.0146679010495 0.0
0.609114058792 2.05709849551e-05 0.0
0.610664111966 -2.48865394092e-05 0.0
0.612537721725 -5.56112900186e-05 0.0
0.614677819136 -8.06084445493e-05 0.0
1.34265457256 -0.00566356395461 0.0
1.25016720436 -0.0126915601548 0.0
0.617060114356 -0.000119191870478 0.0
0.619731374418 -0.000170476590532 0.0
0.62275601737 -0.000237224051158 0.0
0.626089421917 -0.000285950173394 0.0
0.630544166491 -0.000502655935968 0.0
1.33437891984 -0.00610119842096 0.0
1.27357387295 -0.0110507591496 0.0
0.634839546039 -0.000558639592844 0.0
0.639598906617 -0.000646190525003 0.0
0.509769868704 -0.000572747921741 0.0
0.644808239206 -0.000728615190839 0.0
0.830737837133 -0.00800434147917 0.0
0.669267572297 -0.000883871122557 0.0
0.792146897105 -0.00564568998076 0.0
0.677407436411 -0.0010501779496 0.0
0.650083727708 -0.000730457169269 0.0
0.763636733766 -0.0042231931893 0.0
0.685927758532 -0.000892264698988 0.0
0.741467005874 -0.00320613176213 0.0
0.532427543851 0.000360721489047 0.0
0.618723127852 -0.0022712726465 0.0
0.552633976581 -0.000214778043691 0.0
1.32367104257 -0.00626384581431 0.0
1.29247949191 -0.00975950383443 0.0
1.30555084101 -0.00898456065359 0.0
1.32934175546 -0.00692448861996 0.0
1.35757915823 -0.00472596746299 0.0
1.36577328737 -0.00437493119953 0.0
0.636861873399 -0.00265070215553 0.0
0.851429235397 -0.00782514453427 0.0
1.42132012986 -0.000168647289745 0.0
1.0342464558 -0.0500750838102 0.0
1.11367335543 -0.00046545583151 0.0
1.18171167443 -0.000364100386503 0.0
1.04073038447 -0.0199689537804 0.0
0.50639276741 -1.94045556187e-05 0.0
1.10346174735 -0.0792937171094 0.0
1.01331498468 -0.0648070910373 0.0
0.5540214113 -0.0013482535075 0.0
1.42746947084 -0.00275972664574 0.0
1.42271256206 -0.00300320523265 0.0
1.43092466085 -0.0024165223604 0.0
1.4166124783 -0.00320581144021 0.0
1.28063979293 -0.295922556718 0.0
1.40952029351 -0.0034143687662 0.0
1.43533147056 -0.00218016096178 0.0
1.40257604293 -0.00354382138372 0.0
1.43925110791 -0.0019565994499 0.0
1.44277719242 -0.00175004844298 0.0
1.19579531114 -0.0103761040826 0.0
1.37247889455 -0.0043160432581 0.0
1.10766822045 -0.0162468077675 0.0
1.36242583762 -0.00458743150817 0.0
1.22981177518 -0.00914531355057 0.0
1.44596596719 -0.00156513968782 0.0
1.35124916472 -0.00490981596202 0.0
1.25861892993 -0.00809967576094 0.0
1.15573626002 -0.0123754373882 0.0
1.28304607406 -0.00720942459611 0.0
1.44887535505 -0.00140388488932 0.0
1.45031794945 -0.00127055376321 0.0
1.45152133493 -0.00118434942897 0.0
1.45001307369 -0.000648679951606 0.0
1.45234722724 -0.000189209472646 0.0
1.45395311439 6.05473227806e-06 0.0
1.15584072615 -0.00434486834008 0.0
0.742295317387 -0.00953297422748 0.0
0.794629005207 -0.016296980428 0.0
0.856280327569 -0.0219176042687 0.0
0.710200299458 -0.00841783348995 0.0
0.476298322957 -0.000475100125137 0.0
0.477140328681 -0.000524055048988 0.0
0.478522776331 -0.000582780793352 0.0
1.20320301705 -0.00850328518519 0.0
0.480238169637 -0.000612244840204 0.0
0.48217489572 -0.000648990711828 0.0
0.484304319332 -0.000683936107064 0.0
1.11829676678 4.62850766068e-05 0.0
1.20776601609 -0.0107510737414 0.0
0.486663317788 -0.000727799668506 0.0
1.11830436732 -3.46056581385e-05 0.0
0.489311147496 -0.000786296026901 0.0
0.492298602894 -0.000869029930163 0.0
0.495428627214 -0.000522795636399 0.0
0.499096409801 -0.000580965616424 0.0
1.10611389147 -0.000565186365709 0.0
0.503178829826 -0.00062457910876 0.0
1.10729895721 -0.000533438425255 0.0
0.483632058158 -0.000324164335292 0.0
0.507675410347 -0.0006747386936 0.0
1.10868759285 -0.000895798862099 0.0
0.485648871413 -0.000450078875796 0.0
1.11063235566 -0.00103883242368 0.0
0.482526730108 -0.000670164043334 0.0
0.512477787209 -0.000789778597741 0.0
1.11229409172 -0.00118116092695 0.0
0.483190500248 -0.000468040850932 0.0
0.503043841021 -0.000313682158076 0.0
1.11419493507 -0.00133521361155 0.0
0.682910837649 -0.00758696985493 0.0
1.1163659229 -0.00152023299905 0.0
1.11886321234 -0.0017435669857 0.0
0.530807306426 -0.000717094176613 0.0
1.12157901127 -0.0020001439706 0.0
1.12199119432 -0.00237187609397 0.0
1.22793436223 -0.0265231089116 0.0
0.646614993099 -0.00512802036461 0.0
0.537716753964 -0.00111607273308 0.0
1.12353873082 -0.00245728465075 0.0
1.12747016413 -0.00271027303155 0.0
0.620596224113 -0.00396934807661 0.0
0.545101038203 -0.00120588949882 0.0
1.13165625471 -0.00291314624004 0.0
0.60081174577 -0.00316451313555 0.0
0.528027847712 -0.00056145970374 0.0
1.13610854331 -0.00308909421054 0.0
1.13821636271 -0.00325817443074 0.0
0.571100150565 -0.00226659843107 0.0
1.15002128795 -0.00481241668542 0.0
1.15657472924 -0.00427464013061 0.0
1.16310015277 -0.00461668305846 0.0
1.22222400816 -0.0205867801245 0.0
1.17032382581 -0.00508437107544 0.0
1.21378903137 -0.0164439760968 0.0
1.17501414271 -0.00573206272489 0.0
1.2048635933 -0.0135162328005 0.0
1.19307834857 -0.0114067864436 0.0
1.22161556196 -0.0378279473387 0.0
1.20090408525 -0.0525179952732 0.0
1.18361345856 -0.055577859678 0.0
1.19093972493 -0.00985035812885 0.0
1.22543267051 -0.035529760926 0.0
1.22574310739 -0.0268366949146 0.0
1.20039109443 -0.0120810489025 0.0
1.16644806572 -0.00702568288619 0.0
1.21065859812 -0.0152396134422 0.0
1.15808978632 -0.00650962242209 0.0
1.22018976092 -0.0197475946506 0.0
1.15128390358 -0.0059614210084 0.0
0.596124570733 -0.00217811942566 0.0
1.15134568396 -0.00517688195807 0.0
0.615711642257 -0.00305203843825 0.0
0.554586255239 -0.00131559316955 0.0
0.685867295573 -0.0070714039433 0.0
1.13184993206 -0.00454350861617 0.0
0.63772884719 -0.00389309957224 0.0
0.551618810147 -0.00163003245037 0.0
1.12768173439 -0.00443935799444 0.0
1.12342834707 -0.00419790641601 0.0
0.667122709537 -0.00519600527067 0.0
0.544443913704 -0.00152907999132 0.0
1.11937889832 -0.0039068863129 0.0
1.4491428564 -0.0010895801526 0.0
1.11556029717 -0.00363793393967 0.0
1.12552459551 -0.00311030760832 0.0
0.514832494777 -0.000525359553318 0.0
1.12306954546 -0.00281994794277 0.0
1.12052803056 -0.002574727998 0.0
1.11824524965 -0.0023509172867 0.0
1.11626163703 -0.00216501842301 0.0
1.11454393555 -0.00201166142243 0.0
1.11305180313 -0.00184993944437 0.0
1.11112635112 -0.00175332992817 0.0
1.1101465121 -0.000233742246724 0.0
1.11029296864 -0.000998074237336 0.0
1.10975781355 -0.000827260589812 0.0
1.10599401931 -0.000704006579051 0.0
1.38175409458 -0.00401157862812 0.0
1.45135916885 -0.00140159322829 0.0
0.524163480348 -0.00127809640947 0.0
0.51461901405 -0.00129869611662 0.0
0.509845398482 -0.0012318244028 0.0
0.505461277464 -0.00116248188426 0.0
0.501474377166 -0.00110460281736 0.0
1.44999921928 -0.0013747368504 0.0
0.498116127691 -0.000717931273313 0.0
0.494975182725 -0.000762147122303 0.0
0.492098492804 -0.000675591592924 0.0
0.489551579079 -0.000621806593273 0.0
0.487273184614 -0.000581627350278 0.0
0.485212202816 -0.000551160372715 0.0
1.44886645179 -0.0015255910972 0.0
0.483353302086 -0.000518324079018 0.0
0.481718912744 -0.00048207773317 0.0
0.480543100247 -0.000413830210678 0.0
0.483126533513 -4.453249904e-05 0.0
1.44600557183 -0.0016829628225 0.0
1.442891106 -0.0018574323553 0.0
1.31113887172 -0.0072016564652 0.0
1.43948153014 -0.00205545945525 0.0
1.33225940871 -0.00524025220667 0.0
0.878282481591 -0.000179557967944 0.0
1.43571175426 -0.00227360579974 0.0
1.00630223357 -0.0112749300428 0.0
1.08321892871 -0.018242135389 0.0
1.44950212943 -0.000566082614513 0.0
1.43149985189 -0.00249774129937 0.0
1.21887123547 -0.103009747926 0.0
1.4270190337 -0.00270646958047 0.0
1.43695982542 -0.0022674139737 0.0
1.38794576265 -0.00350562217231 0.0
1.4299112076 -0.00243371610232 0.0
1.42219929768 -0.00259973298309 0.0
1.44830282921 -0.000309214816428 0.0
1.41354526116 -0.0027836436168 0.0
1.40508358376 -0.00279369389603 0.0
1.13424320218 -0.0110050002041 0.0
1.17653599732 -0.00910594079379 0.0
1.37958889309 -0.00331108941879 0.0
1.34407662563 -0.00395023460909 0.0
1.29211411587 -0.0058297208263 0.0
1.36886733222 -0.00353382476143 0.0
1.21219300082 -0.00805610615366 0.0
1.29346975788 -0.0018091234175 0.0