# vtk DataFile Version 2.0
2D Simulation Python
ASCII
DATASET UNSTRUCTURED_GRID
FIELD FieldData 1
NODES 1 2 int
2790 1289

POINTS 2790 double
0.0 1.0 0.0
1.725 1.0 0.0
8.275 1.0 0.0
20.0 1.0 0.0
20.0 0.0 0.0
0.0 0.0 0.0
0.1916666666663293 1.0 0.0
0.3833333333324708 1.0 0.0
0.574999999998553 1.0 0.0
0.7666666666645966 1.0 0.0
0.9583333333312576 1.0 0.0
1.149999999998384 1.0 0.0
1.341666666665662 1.0 0.0
1.533333333332819 1.0 0.0
0.0958333333331406 1.0 0.0
0.2874999999994247 1.0 0.0
0.4791666666655395 1.0 0.0
0.6708333333315728 1.0 0.0
0.8624999999976626 1.0 0.0
1.054166666664886 1.0 0.0
1.245833333332057 1.0 0.0
1.437499999999343 1.0 0.0
1.629166666666455 1.0 0.0
1.92348484848444 1.0 0.0
2.121969696968978 1.0 0.0
2.320454545453434 1.0 0.0
2.518939393937826 1.0 0.0
2.717424242422235 1.0 0.0
2.915909090906411 1.0 0.0
3.1143939393908 1.0 0.0
3.312878787875129 1.0 0.0
3.511363636359531 1.0 0.0
3.709848484843827 1.0 0.0
3.90833333332816 1.0 0.0
4.106818181812215 1.0 0.0
4.305303030296804 1.0 0.0
4.503787878781365 1.0 0.0
4.702272727265711 1.0 0.0
4.900757575750005 1.0 0.0
5.099242424235156 1.0 0.0
5.297727272720327 1.0 0.0
5.496212121205663 1.0 0.0
5.694696969690998 1.0 0.0
5.89318181817668 1.0 0.0
6.09166666666213 1.0 0.0
6.290151515147423 1.0 0.0
6.488636363633031 1.0 0.0
6.687121212118713 1.0 0.0
6.885606060604342 1.0 0.0
7.084090909089381 1.0 0.0
7.282575757574369 1.0 0.0
7.481060606059355 1.0 0.0
7.679545454544343 1.0 0.0
7.878030303029329 1.0 0.0
8.076515151514705 1.0 0.0
1.824242424242199 1.0 0.0
2.022727272726695 1.0 0.0
2.221212121211181 1.0 0.0
2.41969696969563 1.0 0.0
2.618181818180092 1.0 0.0
2.816666666664316 1.0 0.0
3.015151515148624 1.0 0.0
3.213636363633039 1.0 0.0
3.412121212117267 1.0 0.0
3.610606060601583 1.0 0.0
3.809090909085975 1.0 0.0
4.007575757570153 1.0 0.0
4.206060606054539 1.0 0.0
4.404545454539001 1.0 0.0
4.603030303023853 1.0 0.0
4.801515151507715 1.0 0.0
4.999999999992074 1.0 0.0
5.198484848477777 1.0 0.0
5.396969696963081 1.0 0.0
5.595454545448261 1.0 0.0
5.793939393933949 1.0 0.0
5.992424242419331 1.0 0.0
6.190909090904785 1.0 0.0
6.389393939390224 1.0 0.0
6.587878787875795 1.0 0.0
6.786363636361617 1.0 0.0
6.984848484846598 1.0 0.0
7.183333333331875 1.0 0.0
7.381818181816625 1.0 0.0
7.580303030301849 1.0 0.0
7.778787878786936 1.0 0.0
7.977272727272114 1.0 0.0
8.175757575757618 1.0 0.0
8.473728813558951 1.0 0.0
8.672457627118133 1.0 0.0
8.871186440676855 1.0 0.0
9.069915254236154 1.0 0.0
9.268644067794812 1.0 0.0
9.467372881354057 1.0 0.0
9.666101694912944 1.0 0.0
9.864830508471961 1.0 0.0
10.06355932203108 1.0 0.0
10.26228813558986 1.0 0.0
10.46101694914916 1.0 0.0
10.65974576270777 1.0 0.0
10.85847457626706 1.0 0.0
11.05720338982589 1.0 0.0
11.25593220338497 1.0 0.0
11.45466101694402 1.0 0.0
11.65338983050287 1.0 0.0
11.85211864406215 1.0 0.0
12.05084745762035 1.0 0.0
12.24957627117938 1.0 0.0
12.44830508473794 1.0 0.0
12.64703389829659 1.0 0.0
12.84576271185557 1.0 0.0
13.04449152541379 1.0 0.0
13.24322033897301 1.0 0.0
13.44194915253121 1.0 0.0
13.6406779660903 1.0 0.0
13.83940677964874 1.0 0.0
14.03813559320751 1.0 0.0
14.23686440676681 1.0 0.0
14.43559322032663 1.0 0.0
14.63432203388679 1.0 0.0
14.8330508474463 1.0 0.0
15.0317796610067 1.0 0.0
15.23050847456608 1.0 0.0
15.42923728812645 1.0 0.0
15.62796610168606 1.0 0.0
15.82669491524602 1.0 0.0
16.02542372880584 1.0 0.0
16.22415254236431 1.0 0.0
16.42288135592496 1.0 0.0
16.62161016948498 1.0 0.0
16.82033898304518 1.0 0.0
17.01906779660567 1.0 0.0
17.2177966101654 1.0 0.0
17.41652542372565 1.0 0.0
17.61525423728425 1.0 0.0
17.81398305084494 1.0 0.0
18.01271186440355 1.0 0.0
18.21144067796387 1.0 0.0
18.41016949152309 1.0 0.0
18.6088983050827 1.0 0.0
18.80762711864282 1.0 0.0
19.00635593220153 1.0 0.0
19.20508474576211 1.0 0.0
19.40381355932072 1.0 0.0
19.60254237288117 1.0 0.0
19.80127118644013 1.0 0.0
8.374364406779554 1.0 0.0
8.573093220338519 1.0 0.0
8.771822033897509 1.0 0.0
8.970550847456504 1.0 0.0
9.169279661015429 1.0 0.0
9.368008474574502 1.0 0.0
9.566737288133496 1.0 0.0
9.765466101692677 1.0 0.0
9.964194915251602 1.0 0.0
10.16292372881015 1.0 0.0
10.36165254236967 1.0 0.0
10.56038135592849 1.0 0.0
10.75911016948728 1.0 0.0
10.95783898304648 1.0 0.0
11.15656779660554 1.0 0.0
11.35529661016447 1.0 0.0
11.55402542372345 1.0 0.0
11.75275423728253 1.0 0.0
11.95148305084111 1.0 0.0
12.15021186439983 1.0 0.0
12.34894067795883 1.0 0.0
12.54766949151722 1.0 0.0
12.74639830507616 1.0 0.0
12.94512711863486 1.0 0.0
13.14385593219357 1.0 0.0
13.34258474575207 1.0 0.0
13.54131355931069 1.0 0.0
13.7400423728695 1.0 0.0
13.93877118642822 1.0 0.0
14.13749999998697 1.0 0.0
14.33622881354686 1.0 0.0
14.53495762710678 1.0 0.0
14.73368644066656 1.0 0.0
14.93241525422655 1.0 0.0
15.13114406778625 1.0 0.0
15.32987288134641 1.0 0.0
15.52860169490635 1.0 0.0
15.7273305084661 1.0 0.0
15.9260593220261 1.0 0.0
16.12478813558534 1.0 0.0
16.32351694914468 1.0 0.0
16.52224576270527 1.0 0.0
16.72097457626511 1.0 0.0
16.91970338982543 1.0 0.0
17.11843220338561 1.0 0.0
17.31716101694539 1.0 0.0
17.51588983050497 1.0 0.0
17.71461864406449 1.0 0.0
17.91334745762401 1.0 0.0
18.11207627118383 1.0 0.0
18.31080508474307 1.0 0.0
18.50953389830311 1.0 0.0
18.70826271186271 1.0 0.0
18.90699152542239 1.0 0.0
19.10572033898203 1.0 0.0
19.30444915254171 1.0 0.0
19.50317796610107 1.0 0.0
19.70190677966065 1.0 0.0
19.90063559322003 1.0 0.0
20.0 0.7999999999999998 0.0
20.0 0.6000000000013869 0.0
20.0 0.4000000000016644 0.0
20.0 0.2000000000008322 0.0
20.0 0.9000000000000369 0.0
20.0 0.7000000000005904 0.0
20.0 0.5000000000017577 0.0
20.0 0.3000000000012483 0.0
20.0 0.1000000000004161 0.0
19.8 0.0 0.0
19.6 0.0 0.0
19.4 0.0 0.0
19.2 0.0 0.0
19.0 0.0 0.0
18.8 0.0 0.0
18.6 0.0 0.0
18.4 0.0 0.0
18.2 0.0 0.0
18.0 0.0 0.0
17.8 0.0 0.0
17.59999999999999 0.0 0.0
17.4 0.0 0.0
17.2 0.0 0.0
16.99999999999999 0.0 0.0
16.79999999999999 0.0 0.0
16.59999999999999 0.0 0.0
16.4 0.0 0.0
16.2 0.0 0.0
15.99999999999999 0.0 0.0
15.79999999999999 0.0 0.0
15.59999999999999 0.0 0.0
15.4 0.0 0.0
15.2 0.0 0.0
15.0 0.0 0.0
14.79999999999999 0.0 0.0
14.59999999999999 0.0 0.0
14.4 0.0 0.0
14.2 0.0 0.0
13.99999999999999 0.0 0.0
13.8 0.0 0.0
13.59999999999999 0.0 0.0
13.4 0.0 0.0
13.2 0.0 0.0
13.0 0.0 0.0
12.79999999999999 0.0 0.0
12.6 0.0 0.0
12.4 0.0 0.0
12.2 0.0 0.0
11.99999999999999 0.0 0.0
11.8 0.0 0.0
11.6 0.0 0.0
11.4 0.0 0.0
11.2 0.0 0.0
11.0 0.0 0.0
10.8 0.0 0.0
10.6 0.0 0.0
10.4 0.0 0.0
10.2 0.0 0.0
9.999999999999998 0.0 0.0
9.799999999999995 0.0 0.0
9.599999999999998 0.0 0.0
9.399999999999997 0.0 0.0
9.199999999999998 0.0 0.0
8.999999999999996 0.0 0.0
8.799999999999997 0.0 0.0
8.599999999999996 0.0 0.0
8.399999999999999 0.0 0.0
8.199999999999996 0.0 0.0
7.999999999999998 0.0 0.0
7.799999999999997 0.0 0.0
7.599999999999998 0.0 0.0
7.399999999999999 0.0 0.0
7.199999999999998 0.0 0.0
6.999999999999995 0.0 0.0
6.799999999999995 0.0 0.0
6.599999999999998 0.0 0.0
6.399999999999997 0.0 0.0
6.199999999999996 0.0 0.0
5.999999999999998 0.0 0.0
5.799999999999999 0.0 0.0
5.599999999999996 0.0 0.0
5.399999999999995 0.0 0.0
5.199999999999996 0.0 0.0
4.999999999999998 0.0 0.0
4.799999999999997 0.0 0.0
4.599999999999998 0.0 0.0
4.399999999999999 0.0 0.0
4.199999999999999 0.0 0.0
3.999999999999996 0.0 0.0
3.799999999999997 0.0 0.0
3.599999999999998 0.0 0.0
3.399999999999999 0.0 0.0
3.199999999999999 0.0 0.0
3.0 0.0 0.0
2.800000000000001 0.0 0.0
2.599999999999998 0.0 0.0
2.399999999999999 0.0 0.0
2.199999999999996 0.0 0.0
1.999999999999996 0.0 0.0
1.800000000000001 0.0 0.0
1.599999999999998 0.0 0.0
1.399999999999999 0.0 0.0
1.200000000000003 0.0 0.0
1.0 0.0 0.0
0.7999999999999972 0.0 0.0
0.5999999999999979 0.0 0.0
0.3999999999999986 0.0 0.0
0.1999999999999993 0.0 0.0
19.90000000000022 0.0 0.0
19.69999999999997 0.0 0.0
19.49999999999987 0.0 0.0
19.30000000000005 0.0 0.0
19.09999999999999 0.0 0.0
18.89999999999987 0.0 0.0
18.7 0.0 0.0
18.49999999999999 0.0 0.0
18.30000000000001 0.0 0.0
18.09999999999987 0.0 0.0
17.90000000000013 0.0 0.0
17.7 0.0 0.0
17.49999999999987 0.0 0.0
17.30000000000025 0.0 0.0
17.10000000000001 0.0 0.0
16.90000000000005 0.0 0.0
16.70000000000003 0.0 0.0
16.50000000000006 0.0 0.0
16.29999999999997 0.0 0.0
16.09999999999999 0.0 0.0
15.89999999999987 0.0 0.0
15.69999999999999 0.0 0.0
15.49999999999999 0.0 0.0
15.3 0.0 0.0
15.10000000000003 0.0 0.0
14.90000000000005 0.0 0.0
14.69999999999992 0.0 0.0
14.49999999999996 0.0 0.0
14.29999999999999 0.0 0.0
14.10000000000008 0.0 0.0
13.89999999999988 0.0 0.0
13.70000000000003 0.0 0.0
13.50000000000004 0.0 0.0
13.29999999999992 0.0 0.0
13.09999999999995 0.0 0.0
12.90000000000016 0.0 0.0
12.7 0.0 0.0
12.49999999999986 0.0 0.0
12.30000000000003 0.0 0.0
12.10000000000016 0.0 0.0
11.90000000000005 0.0 0.0
11.69999999999994 0.0 0.0
11.49999999999993 0.0 0.0
11.30000000000005 0.0 0.0
11.0999999999999 0.0 0.0
10.90000000000004 0.0 0.0
10.69999999999995 0.0 0.0
10.50000000000012 0.0 0.0
10.29999999999999 0.0 0.0
10.09999999999993 0.0 0.0
9.900000000000077 0.0 0.0
9.699999999999969 0.0 0.0
9.499999999999982 0.0 0.0
9.299999999999969 0.0 0.0
9.100000000000108 0.0 0.0
8.899999999999972 0.0 0.0
8.699999999999958 0.0 0.0
8.499999999999998 0.0 0.0
8.30000000000003 0.0 0.0
8.099999999999977 0.0 0.0
7.899999999999974 0.0 0.0
7.700000000000166 0.0 0.0
7.499999999999854 0.0 0.0
7.299999999999997 0.0 0.0
7.100000000000019 0.0 0.0
6.900000000000002 0.0 0.0
6.699999999999974 0.0 0.0
6.500000000000037 0.0 0.0
6.299999999999981 0.0 0.0
6.100000000000014 0.0 0.0
5.899999999999949 0.0 0.0
5.700000000000049 0.0 0.0
5.499999999999956 0.0 0.0
5.300000000000118 0.0 0.0
5.100000000000005 0.0 0.0
4.900000000000109 0.0 0.0
4.699999999999982 0.0 0.0
4.499999999999936 0.0 0.0
4.300000000000137 0.0 0.0
4.100000000000012 0.0 0.0
3.899999999999888 0.0 0.0
3.69999999999974 0.0 0.0
3.500000000000046 0.0 0.0
3.299999999999965 0.0 0.0
3.099999999999817 0.0 0.0
2.900000000000066 0.0 0.0
2.699999999999793 0.0 0.0
2.500000000000064 0.0 0.0
2.299999999999823 0.0 0.0
[...]
POINT_DATA 2790
VECTORS vector double
1.0 0.0 0.0
0.0 0.0 0.0
0.0 0.0 0.0
0.0 0.0 0.0
1.5462694209 0.0 0.0
1.0 0.0 0.0
0.0 0.0 0.0
0.0 0.0 0.0
0.0 0.0 0.0
0.0 0.0 0.0
0.0 0.0 0.0
0.0 0.0 0.0
0.0 0.0 0.0
0.0 0.0 0.0
0.0 0.0 0.0
0.0 0.0 0.0
0.0 0.0 0.0
0.0 0.0 0.0
0.0 0.0 0.0
0.0 0.0 0.0
0.0 0.0 0.0
0.0 0.0 0.0
0.0 0.0 0.0
0.0 0.0 0.0
0.0 0.0 0.0
0.0 0.0 0.0
0.0 0.0 0.0
0.0 0.0 0.0
0.0 0.0 0.0
0.0 0.0 0.0
0.0 0.0 0.0
0.0 0.0 0.0
0.0 0.0 0.0
0.0 0.0 0.0
0.0 0.0 0.0
0.0 0.0 0.0
0.0 0.0 0.0
0.0 0.0 0.0
0.0 0.0 0.0
0.0 0.0 0.0
0.0 0.0 0.0
0.0 0.0 0.0
0.0 0.0 0.0
0.0 0.0 0.0
0.0 0.0 0.0
0.0 0.0 0.0
0.0 0.0 0.0
0.0 0.0 0.0
0.0 0.0 0.0
0.0 0.0 0.0
0.0 0.0 0.0
0.0 0.0 0.0
0.0 0.0 0.0
0.0 0.0 0.0
0.0 0.0 0.0
0.0 0.0 0.0
0.0 0.0 0.0
0.0 0.0 0.0
0.0 0.0 0.0
0.0 0.0 0.0
0.0 0.0 0.0
0.0 0.0 0.0
0.0 0.0 0.0
0.0 0.0 0.0
0.0 0.0 0.0
0.0 0.0 0.0
0.0 0.0 0.0
0.0 0.0 0.0
0.0 0.0 0.0
0.0 0.0 0.0
0.0 0.0 0.0
0.0 0.0 0.0
0.0 0.0 0.0
0.0 0.0 0.0
0.0 0.0 0.0
0.0 0.0 0.0
0.0 0.0 0.0
0.0 0.0 0.0
0.0 0.0 0.0
0.0 0.0 0.0
0.0 0.0 0.0
0.0 0.0 0.0
0.0 0.0 0.0
0.0 0.0 0.0
0.0 0.0 0.0
0.0 0.0 0.0
0.0 0.0 0.0
0.0 0.0 0.0
0.0 0.0 0.0
0.0 0.0 0.0
0.0 0.0 0.0
0.0 0.0 0.0
0.0 0.0 0.0
0.0 0.0 0.0
0.0 0.0 0.0
0.0 0.0 0.0
0.0 0.0 0.0
0.0 0.0 0.0
0.0 0.0 0.0
0.0 0.0 0.0
0.0 0.0 0.0
0.0 0.0 0.0
0.0 0.0 0.0
0.0 0.0 0.0
0.0 0.0 0.0
0.0 0.0 0.0
0.0 0.0 0.0
0.0 0.0 0.0
0.0 0.0 0.0
0.0 0.0 0.0
0.0 0.0 0.0
0.0 0.0 0.0
0.0 0.0 0.0
0.0 0.0 0.0
0.0 0.0 0.0
0.0 0.0 0.0
0.0 0.0 0.0
0.0 0.0 0.0
0.0 0.0 0.0
0.0 0.0 0.0
0.0 0.0 0.0
0.0 0.0 0.0
0.0 0.0 0.0
0.0 0.0 0.0
0.0 0.0 0.0
0.0 0.0 0.0
0.0 0.0 0.0
0.0 0.0 0.0
0.0 0.0 0.0
0.0 0.0 0.0
0.0 0.0 0.0
0.0 0.0 0.0
0.0 0.0 0.0
0.0 0.0 0.0
0.0 0.0 0.0
0.0 0.0 0.0
0.0 0.0 0.0
0.0 0.0 0.0
0.0 0.0 0.0
0.0 0.0 0.0
0.0 0.0 0.0
0.0 0.0 0.0
0.0 0.0 0.0
0.0 0.0 0.0
0.0 0.0 0.0
0.0 0.0 0.0
0.0 0.0 0.0
0.0 0.0 0.0
0.0 0.0 0.0
0.0 0.0 0.0
0.0 0.0 0.0
0.0 0.0 0.0
0.0 0.0 0.0
0.0 0.0 0.0
0.0 0.0 0.0
0.0 0.0 0.0
0.0 0.0 0.0
0.0 0.0 0.0
0.0 0.0 0.0
0.0 0.0 0.0
0.0 0.0 0.0
0.0 0.0 0.0
0.0 0.0 0.0
0.0 0.0 0.0
0.0 0.0 0.0
0.0 0.0 0.0
0.0 0.0 0.0
0.0 0.0 0.0
0.0 0.0 0.0
0.0 0.0 0.0
0.0 0.0 0.0
0.0 0.0 0.0
0.0 0.0 0.0
0.0 0.0 0.0
0.0 0.0 0.0
0.0 0.0 0.0
0.0 0.0 0.0
0.0 0.0 0.0
0.0 0.0 0.0
0.0 0.0 0.0
0.0 0.0 0.0
0.0 0.0 0.0
0.0 0.0 0.0
0.0 0.0 0.0
0.0 0.0 0.0
0.0 0.0 0.0
0.0 0.0 0.0
0.0 0.0 0.0
0.0 0.0 0.0
0.0 0.0 0.0
0.0 0.0 0.0
0.0 0.0 0.0
0.0 0.0 0.0
0.0 0.0 0.0
0.0 0.0 0.0
0.0 0.0 0.0
0.0 0.0 0.0
0.0 0.0 0.0
0.0 0.0 0.0
0.0 0.0 0.0
0.0 0.0 0.0
0.0 0.0 0.0
0.0 0.0 0.0
0.0 0.0 0.0
0.0 0.0 0.0
0.555559605349 0.000122752601375 0.0
0.972940444025 4.7120359536e-05 0.0
1.25484082901 -0.000271919243589 0.0
1.42946089109 -0.000322208816275 0.0
0.283676410829 7.0254663751e-05 0.0
0.77003468468 0.00136640426202 0.0
1.11919931831 0.000147920275516 0.0
1.34502411057 -0.000677776058991 0.0
1.4870715426 -0.000275072267764 0.0
1.54524782088 0.0 0.0
1.54536172281 0.0 0.0
1.54556508032 0.0 0.0
1.54583528415 0.0 0.0
1.54517360576 0.0 0.0
1.54628069574 0.0 0.0
1.54646220992 0.0 0.0
1.54588285431 0.0 0.0
1.54647550733 0.0 0.0
1.5465364587 0.0 0.0
1.5459362034 0.0 0.0
1.54650078591 0.0 0.0
1.54653088733 0.0 0.0
1.54589071367 0.0 0.0
1.54470871778 0.0 0.0
1.54449321736 0.0 0.0
1.54504735561 0.0 0.0
1.54331433861 0.0 0.0
1.54214804338 0.0 0.0
1.54165924761 0.0 0.0
1.5388681431 0.0 0.0
1.53670497579 0.0 0.0
1.53546569544 0.0 0.0
1.53219350231 0.0 0.0
1.52981667211 0.0 0.0
1.52854736357 0.0 0.0
1.52525858809 0.0 0.0
1.52288019607 0.0 0.0
1.52155555093 0.0 0.0
1.5181080847 0.0 0.0
1.51551693727 0.0 0.0
1.51396402499 0.0 0.0
1.51023764225 0.0 0.0
1.50733839597 0.0 0.0
1.50549371464 0.0 0.0
1.50141608315 0.0 0.0
1.49816835618 0.0 0.0
1.49602428009 0.0 0.0
1.49128886057 0.0 0.0
1.48739362635 0.0 0.0
1.48492946124 0.0 0.0
1.48020870599 0.0 0.0
1.47598496121 0.0 0.0
1.47316663749 0.0 0.0
1.4680617246 0.0 0.0
1.46345554905 0.0 0.0
1.46032508962 0.0 0.0
1.45489436188 0.0 0.0
1.44993412404 0.0 0.0
1.44641609236 0.0 0.0
1.44076867242 0.0 0.0
1.43551503551 0.0 0.0
1.43143940139 0.0 0.0
1.42825132091 0.0 0.0
1.42189796649 0.0 0.0
1.41531234183 0.0 0.0
1.40970266395 0.0 0.0
1.40493064929 0.0 0.0
1.39863025938 0.0 0.0
1.39284828025 0.0 0.0
1.38843935415 0.0 0.0
1.38190321182 0.0 0.0
1.37577022063 0.0 0.0
1.37109592088 0.0 0.0
1.36427455619 0.0 0.0
1.35785508169 0.0 0.0
1.35287293425 0.0 0.0
1.34579272012 0.0 0.0
1.33908882388 0.0 0.0
1.33346138155 0.0 0.0
1.32819533646 0.0 0.0
1.32002049579 0.0 0.0
1.31315136186 0.0 0.0
1.30546270917 0.0 0.0
1.29698880753 0.0 0.0
1.2897586205 0.0 0.0
1.28082877861 0.0 0.0
1.27204766012 0.0 0.0
1.26397299937 0.0 0.0
1.25598330334 0.0 0.0
1.24687249771 0.0 0.0
1.23809595365 0.0 0.0
1.22923055846 0.0 0.0
1.21964420294 0.0 0.0
1.21009173196 0.0 0.0
1.20018072886 0.0 0.0
1.18986081703 0.0 0.0
1.17913540876 0.0 0.0
1.1678645553 0.0 0.0
1.15639189123 0.0 0.0
1.14393532351 0.0 0.0
1.13036820555 0.0 0.0
1.11639242832 0.0 0.0
1.10039555953 0.0 0.0
1.08216914974 0.0 0.0
1.06300015451 0.0 0.0
1.04095481527 0.0 0.0
1.01973847003 0.0 0.0
1.00403152063 0.0 0.0
1.54567536991 0.0 0.0
1.54488733989 0.0 0.0
1.54635005065 0.0 0.0
1.54503392771 0.0 0.0
1.54508328531 0.0 0.0
1.54555051466 0.0 0.0
1.54715859609 0.0 0.0
1.54571603212 0.0 0.0
1.54567828209 0.0 0.0
1.54721047314 0.0 0.0
1.54576349093 0.0 0.0
1.54569388845 0.0 0.0
1.5472207391 0.0 0.0
1.54575013375 0.0 0.0
1.54565698971 0.0 0.0
1.54429579552 0.0 0.0
1.5451824255 0.0 0.0
1.54449164906 0.0 0.0
1.54227535917 0.0 0.0
1.54220452412 0.0 0.0
1.54038474606 0.0 0.0
1.53716695172 0.0 0.0
1.5362740173 0.0 0.0
1.53387501889 0.0 0.0
1.53031493363 0.0 0.0
1.52935190367 0.0 0.0
1.52696417006 0.0 0.0
1.52337779881 0.0 0.0
1.52239025548 0.0 0.0
1.51987644857 0.0 0.0
1.51608898734 0.0 0.0
1.51489238808 0.0 0.0
1.5121057337 0.0 0.0
1.50801424992 0.0 0.0
1.50653740367 0.0 0.0
1.50343029705 0.0 0.0
1.49901334216 0.0 0.0
1.49715760398 0.0 0.0
1.49360851424 0.0 0.0
1.48857143078 0.0 0.0
1.48592983774 0.0 0.0
1.48266977756 0.0 0.0
1.47730453891 0.0 0.0
1.47429835488 0.0 0.0
1.47067732854 0.0 0.0
1.46490943253 0.0 0.0
1.46155729464 0.0 0.0
1.45761704634 0.0 0.0
1.45153255947 0.0 0.0
1.44776395117 0.0 0.0
1.4435851389 0.0 0.0
1.43726900004 0.0 0.0
1.43306636957 0.0 0.0
1.42857557746 0.0 0.0
1.42414928817 0.0 0.0
1.41823016095 0.0 0.0
1.41151834584 0.0 0.0
1.40690531252 0.0 0.0
1.40168977207 0.0 0.0
1.39491380303 0.0 0.0
1.39020328554 0.0 0.0
1.38513657855 0.0 0.0
1.37790847044 0.0 0.0
1.37296850299 0.0 0.0
1.36760867722 0.0 0.0
1.36016592857 0.0 0.0
1.35488231807 0.0 0.0
1.34925169816 0.0 0.0
1.34158919256 0.0 0.0
1.33587732252 0.0 0.0
1.32968073598 0.0 0.0
1.32317760998 0.0 0.0
1.31595497811 0.0 0.0
1.3086511092 0.0 0.0
1.30065980791 0.0 0.0
1.29279441595 0.0 0.0
1.28409617406 0.0 0.0
1.27600824371 0.0 0.0
1.26752020087 0.0 0.0
1.25981439704 0.0 0.0
1.25092902836 0.0 0.0
1.24210406496 0.0 0.0
1.23346695165 0.0 0.0
1.2240582133 0.0 0.0
1.21465512167 0.0 0.0
1.20494720087 0.0 0.0
1.19478921011 0.0 0.0
1.18445590699 0.0 0.0
1.17333985596 0.0 0.0
1.16205725324 0.0 0.0
1.15029588436 0.0 0.0
1.13702326604 0.0 0.0
1.12345315803 0.0 0.0
1.10867185682 0.0 0.0
1.09116204983 0.0 0.0
1.07271775112 0.0 0.0
1.05234247274 0.0 0.0
1.03020555521 0.0 0.0
1.01148631922 0.0 0.0
0.998832169645 0.0 0.0
1.0 0.0 0.0
1.0 0.0 0.0
1.0 0.0 0.0
1.0 0.0 0.0
1.0 0.0 0.0
1.0 0.0 0.0
1.0 0.0 0.0
1.0 0.0 0.0
1.0 0.0 0.0
1.16519913358 -0.0710389403615 0.0
1.22337408864 -0.0467662736488 0.0
1.22852095147 -0.0314706611943 0.0
1.10101557465 -5.85658576375e-05 0.0
1.13639301923 -8.56570412529e-05 0.0
1.13537878294 -3.44469181152e-06 0.0
1.13240608447 7.46748884168e-05 0.0
1.13033869948 1.04994294906e-06 0.0
1.13053900945 -0.000356771447333 0.0
1.13133206757 -0.000939260512984 0.0
1.13282785076 -0.00138128288561 0.0
1.13449936786 -0.00157754964271 0.0
1.13625852872 -0.00170968372287 0.0
1.13822811477 -0.00187559225924 0.0
1.14049328477 -0.00208466800287 0.0
1.09573199241 -0.00211910064152 0.0
1.09911921285 -0.00234641543575 0.0
1.10295249276 -0.00269044496449 0.0
1.10718868919 -0.00303015288665 0.0
1.16232223593 -0.0045403917618 0.0
1.22235193425 -0.0230867119753 0.0
1.13371487477 -0.00458125398087 0.0
1.11191740298 -0.00332174323097 0.0
1.20965080187 -0.0177033271364 0.0
1.14096344286 -0.00513290100107 0.0
1.15286073096 -0.00403870388339 0.0
1.19666928898 -0.0140642115328 0.0
1.14922629558 -0.00560686494525 0.0
1.18448758776 -0.0115050691124 0.0
1.18615572987 -0.00688583217762 0.0
1.19676871731 -0.0107481310383 0.0
1.15897418732 -0.00451268205552 0.0
1.17412182434 -0.0099511845639 0.0
0.901018933345 -0.000810401082439 0.0
1.20019803452 -0.138736641749 0.0
1.29368247761 -0.0107676769227 0.0
1.28147200778 -0.0125866149944 0.0
1.31286273906 -0.00729373584854 0.0
1.26672550602 -0.014761774566 0.0
1.3139710623 -0.00652559576548 0.0
1.21659541144 -0.0209298495832 0.0
1.2460019267 -0.0175330961861 0.0
1.31647625995 -0.00598382073974 0.0
1.318282821 -0.00544319304164 0.0
1.3217613496 -0.00467809312635 0.0
1.32270777749 -0.00422009620362 0.0
1.32319679704 -0.00386611351169 0.0
1.32354758759 -0.0034479777018 0.0
1.32367689013 -0.0030569349614 0.0
1.31476831499 -0.00277123080178 0.0
1.31461407679 -0.00242178680503 0.0
1.3146650478 -0.0021750532735 0.0
1.21038600679 -0.0526552305928 0.0
1.31468343665 -0.00198885706404 0.0
1.31471753157 -0.00185667265234 0.0
1.31443903983 -0.00161855695091 0.0
1.1752259223 -0.0254953892734 0.0
1.31377629292 -0.000986971012568 0.0
1.14221509208 -0.0292165317255 0.0
1.12675914581 -0.0335999536018 0.0
1.31159720788 -0.000251687784197 0.0
1.31159461337 -4.02095452473e-05 0.0
0.858177814591 -0.000211480690126 0.0
1.31140969088 5.07092072134e-05 0.0
0.857829749409 -0.000218627923406 0.0
0.978398494591 -0.00728254527683 0.0
0.998032499876 -0.00868785305755 0.0
0.937941935378 -0.00329917088986 0.0
1.0910081496 -0.0196886444062 0.0
1.02182460643 -0.0110199094444 0.0
0.925532418794 -0.00355032007085 0.0
1.05184369953 -0.0145865404968 0.0
0.915303849801 -0.00327778330861 0.0
0.906161577554 -0.00277171549297 0.0
0.898118993323 -0.00225018702771 0.0
0.891677487182 -0.00229746639814 0.0
0.885938311025 -0.00205993496514 0.0
0.88076782087 -0.00181262557718 0.0
0.876224627243 -0.0015968555969 0.0
0.872333776041 -0.00133986128979 0.0
0.868821059505 -0.00123815370057 0.0
0.865735192489 -0.00111684454099 0.0
0.862893176876 -0.00103090289873 0.0
0.860312917201 -0.000935932919573 0.0
0.858163390939 -0.00073327548233 0.0
1.3155075301 -2.56426878045e-06 0.0
0.856804356199 -0.000399508290659 0.0
0.856308113352 -0.000123775211408 0.0
0.856395602298 3.96155204342e-05 0.0
0.856564001189 5.08040630326e-05 0.0
1.33154346079 5.15645565631e-06 0.0
1.03389060793 -0.0343337556341 0.0
1.33649495647 0.000119505524365 0.0
1.32122206064 -0.00509104192013 0.0
1.31379615906 -0.00839642646206 0.0
1.30491873601 -0.00966431167012 0.0
1.33210330963 -0.00534905695484 0.0
0.842913451787 -0.00341873636698 0.0
0.882762559107 -0.00236411081757 0.0
0.900244438914 -0.0035400651437 0.0
0.909642765292 -0.00797455805179 0.0
1.18029656526 -0.0767703745981 0.0
1.04247095718 -0.0282461806014 0.0
1.33842606202 -0.000219913478117 0.0
1.38553767026 -0.00269026255897 0.0
1.38273325258 -0.00305011143229 0.0
1.13723640858 -0.020964442412 0.0
1.37534873035 -0.0025947358479 0.0
1.07398491233 -0.0281820002417 0.0
1.37932304051 -0.00340174277084 0.0
1.37700465657 -0.0023030462566 0.0
1.37848853656 -0.00207615798182 0.0
1.37088593359 -0.00382534046017 0.0
0.955071590833 -0.0159871335911 0.0
1.3799278031 -0.00191473624436 0.0
1.36703484635 -0.00416760764836 0.0
1.38118928292 -0.00180463752838 0.0
1.38185610439 -0.00145311410409 0.0
1.18340697722 -0.0169131397199 0.0
1.38193551374 -0.000695216136358 0.0
1.37253132749 -0.00011351499729 0.0
1.41630741147 2.70461362185e-05 0.0
0.63601843945 7.83418117934e-05 0.0
1.35581369726 -0.00481136592117 0.0
1.41313863065 -2.42747423674e-05 0.0
0.651539637331 0.000127146057236 0.0
0.610121077444 0.000488683437741 0.0
1.41311240778 -3.83610331223e-05 0.0
0.633622691076 0.000372262357685 0.0
1.35120967635 -0.00513308619248 0.0
1.21977967886 -0.0143377047885 0.0
0.633089360633 0.000341579342063 0.0
0.632929841923 0.000235135981976 0.0
0.633372139615 6.3744411643e-05 0.0
0.634640276797 -5.96356181218e-05 0.0
1.34435438274 -0.00556014658116 0.0
1.24961810584 -0.012391066411 0.0
0.636522242356 -0.000104009076256 0.0
0.63872993141 -0.000130120163144 0.0
0.641172004541 -0.000182823800132 0.0
0.643785854799 -0.000226719438847 0.0
0.647457481455 -0.00044215082951 0.0
1.33579713523 -0.00605414389414 0.0
1.27332809908 -0.0108234441982 0.0
0.650958342811 -0.00052474408851 0.0
0.655036757104 -0.000635502073229 0.0
0.525225352003 -0.000500155622841 0.0
0.659721566437 -0.000758260496427 0.0
0.846751843353 -0.0084286847158 0.0
0.684024553406 -0.000974553210329 0.0
0.808076062402 -0.0059742546155 0.0
0.692275482355 -0.00119522135667 0.0
0.664686076977 -0.000820429264061 0.0
0.779390923902 -0.00449924828018 0.0
0.700933156739 -0.0010496701766 0.0
0.756972471166 -0.00345782799514 0.0
0.549185824532 0.000214926212239 0.0
0.635007360181 -0.00246887971099 0.0
0.56801394762 -0.000330311524647 0.0
1.32375731271 -0.0060686167478 0.0
1.29264699517 -0.00958116626097 0.0
1.30598410704 -0.00883063273049 0.0
1.33032559938 -0.00683986792002 0.0
1.36007069918 -0.00462975124567 0.0
1.36822519892 -0.00430122111766 0.0
0.652312826791 -0.00286148097985 0.0
0.864980152437 -0.00779931746889 0.0
1.41500852736 -0.000104932587258 0.0
1.0402044222 -0.0556726632767 0.0
1.1317492184 -0.000392319763122 0.0
1.19656429313 -0.000246823839564 0.0
1.04116367936 -0.0183245801769 0.0
0.531825839952 0.000136960949219 0.0
1.10235380347 -0.0714420242978 0.0
1.0377530764 -0.06210428549 0.0
0.580162894807 -0.0014321942745 0.0
1.42724853669 -0.00233417686631 0.0
1.42323687568 -0.00265769698384 0.0
1.42995894522 -0.00194859295294 0.0
1.41776931401 -0.00293976406532 0.0
1.27511266143 -0.291123271763 0.0
1.41110648667 -0.00324659271316 0.0
1.43361428565 -0.00172374628191 0.0
1.40430048043 -0.00342414350369 0.0
1.43691342969 -0.00154874788888 0.0
1.4399999242 -0.00144214947627 0.0
1.19531637191 -0.0099240712815 0.0
1.3734675258 -0.00422832124952 0.0
1.1074864992 -0.0154006598129 0.0
1.36320906277 -0.0045224910965 0.0
1.22924146132 -0.00876756055863 0.0
1.44281506072 -0.00139267432436 0.0
1.35180466477 -0.00480390532865 0.0
1.25806188105 -0.00777383970687 0.0
1.15553047506 -0.0117154107603 0.0
1.28264556238 -0.00695360684181 0.0
1.4448544218 -0.0010534538034 0.0
1.44458993903 -0.00037354773612 0.0
1.44373506141 1.36003019485e-05 0.0
1.44085390849 0.000384564374944 0.0
1.44228148839 0.000313991446425 0.0
1.44349058942 0.000201049678838 0.0
1.16372466542 -0.00440771819487 0.0
0.761968606697 -0.0101554413569 0.0
0.816617819411 -0.0168895083145 0.0
0.876007414434 -0.0227385073226 0.0
0.730648351197 -0.00905755502564 0.0
0.500814601 -0.000243705670552 0.0
0.50057658164 -0.000220831214833 0.0
0.500526794837 -0.000282566944525 0.0
1.20911332933 -0.00845706581852 0.0
0.500938455234 -0.000402399688261 0.0
0.502050655792 -0.00051077352338 0.0
0.503749442228 -0.000559429502859 0.0
1.13562228822 0.000288673652506 0.0
1.21333330908 -0.0108676399819 0.0
0.505758425268 -0.000583950831286 0.0
1.13588521522 0.000117198404783 0.0
0.507963528649 -0.000621455003493 0.0
0.510392950254 -0.000700120177765 0.0
0.512897716636 -0.000344348136371 0.0
0.51589928615 -0.000417206405795 0.0
1.12316353289 0.000192644665397 0.0
0.519421257521 -0.000490536733284 0.0
1.12292078693 0.000600335159662 0.0
0.508894931189 -0.00014063488068 0.0
0.523461683525 -0.000576371108737 0.0
1.1227634875 0.000271764894861 0.0
0.510951677414 -0.000502857021957 0.0
1.12371787713 -0.000261138109951 0.0
0.507639810954 -0.000626967860635 0.0
0.527975577178 -0.000713638998562 0.0
1.12504171218 -0.000782989470312 0.0
0.508286052091 -0.000567935572827 0.0
0.51863152554 -0.000383236631901 0.0
1.126683393 -0.00103451050984 0.0
0.701162684854 -0.00810906398937 0.0
1.12837896804 -0.0011578292869 0.0
1.13026605258 -0.00129631387483 0.0
0.546580557879 -0.000607481692445 0.0
1.13232611686 -0.00148053136138 0.0
1.13211695583 -0.0018571529944 0.0
1.22983730788 -0.0263179946984 0.0
0.664432886564 -0.00549447783931 0.0
0.55356790468 -0.00107909575691 0.0
1.13302902018 -0.00198039587661 0.0
1.13642227817 -0.00232126134474 0.0
0.638008813061 -0.00425431868884 0.0
0.561107897272 -0.00114875428313 0.0
1.14020888466 -0.00266006076003 0.0
0.617843155809 -0.00342505705073 0.0
0.544592537574 -0.000660757462079 0.0
1.14437720927 -0.0029840051546 0.0
1.14643147159 -0.00331488017006 0.0
0.587987981759 -0.00242902523104 0.0
1.15769156587 -0.00488849039483 0.0
1.16409836614 -0.00421957943269 0.0
1.17040204357 -0.00467646459342 0.0
1.22548811915 -0.0205035865048 0.0
1.17733898257 -0.00515895367948 0.0
1.2180727931 -0.0164320125804 0.0
1.1817770802 -0.00581588889608 0.0
1.20990953373 -0.0135453748212 0.0
1.19887540901 -0.0114559515828 0.0
1.22140934033 -0.0374083897093 0.0
1.19872623772 -0.0499413096492 0.0
1.18239876942 -0.0538881017206 0.0
1.19675736677 -0.00995518040364 0.0
1.22527325443 -0.034692739473 0.0
1.22749210531 -0.0267985913447 0.0
1.20554187264 -0.0121697769612 0.0
1.173570587 -0.0071287081366 0.0
1.21496137691 -0.0152768840876 0.0
1.16547840986 -0.00653481741809 0.0
1.22338561259 -0.0197681772132 0.0
1.1589140147 -0.00597395668182 0.0
0.612875642578 -0.00216009090862 0.0
1.15902640502 -0.00509787834468 0.0
0.632833807952 -0.00305123526318 0.0
0.570698447619 -0.00147008764235 0.0
0.704488901561 -0.00741527106856 0.0
1.1402367631 -0.00455327518451 0.0
0.655224121411 -0.00391934818346 0.0
0.567494796599 -0.00175317609473 0.0
1.1362607581 -0.0042699317624 0.0
1.13229389607 -0.00388628131683 0.0
0.68500755078 -0.00524776365074 0.0
0.560177532526 -0.00162732671397 0.0
1.1286988908 -0.00349723889014 0.0
1.43979504771 -0.00024956004212 0.0
1.12545926026 -0.00315107001737 0.0
1.13572154747 -0.00259848476658 0.0
0.530706630471 -0.000258506378621 0.0
1.13394904488 -0.0023599157279 0.0
1.13205766819 -0.00217794754116 0.0
1.13035347271 -0.00204165171611 0.0
1.12877697044 -0.00189396906735 0.0
1.12727508042 -0.00156588079267 0.0
1.12626222324 -0.00100523744159 0.0
1.1255497408 -0.000628168973489 0.0
1.12804704396 -0.00010766376407 0.0
1.12624983452 -3.38206552118e-05 0.0
1.12700563551 -0.000263166291089 0.0
1.12422376823 -0.000606776898928 0.0
1.38288562 -0.00396577529305 0.0
1.44293201067 -0.000218083774585 0.0
0.539517170591 -0.00139301297734 0.0
0.530154560591 -0.0013768409269 0.0
0.525747534047 -0.00125187902641 0.0
0.521869889422 -0.00115623235522 0.0
0.518494450368 -0.00108476322843 0.0
1.4434623841 -0.000247886992016 0.0
0.515765169365 -0.000687509336291 0.0
0.513250253527 -0.000738281992943 0.0
0.510891008389 -0.000677106574048 0.0
0.508751676071 -0.000646889963467 0.0
0.506827133669 -0.00061931053635 0.0
0.505301766503 -0.000551233564138 0.0
1.44426359851 -0.000918854336054 0.0
0.504445975502 -0.000431947470742 0.0
0.504234968525 -0.000332449214017 0.0
0.504403646505 -0.000292840003245 0.0
0.507937497821 6.03893222218e-05 0.0
1.44264030193 -0.00144629722011 0.0
1.44000583174 -0.00156313206172 0.0
1.31111349642 -0.00698564234797 0.0
1.43696458564 -0.00163341036709 0.0
1.33251743087 -0.00506494158265 0.0
0.902918960128 -0.00017066072034 0.0
1.43373456162 -0.00178670467913 0.0
1.00668395958 -0.0134175034626 0.0
1.08354688256 -0.0175908931929 0.0
1.43973167364 -0.00025041285673 0.0
1.43021654662 -0.00198734017781 0.0
1.21404972378 -0.0976240851551 0.0
1.4265239485 -0.00219490594546 0.0
1.43677958066 -0.00184026821408 0.0
1.38959252377 -0.0034424970557 0.0
1.43052930318 -0.00206775742305 0.0
1.423397835 -0.002302033027 0.0
1.43847146732 -0.000140681211232 0.0
1.41502374368 -0.00253074377417 0.0
1.4065326142 -0.00269909770288 0.0
1.13430815245 -0.0105055874841 0.0
1.17621635339 -0.00876518302162 0.0
1.3804208054 -0.00310182396464 0.0
1.34423672658 -0.00377921931993 0.0
1.29170756955 -0.00562894710448 0.0
1.36956184328 -0.00335808309693 0.0
1.21171879438 -0.00773215098184 0.0
1.29899902724 -0.00140463899093 0.0