# vtk DataFile Version 2.0
2D Simulation Python
ASCII
DATASET UNSTRUCTURED_GRID
FIELD FieldData 1
NODES 1 2 int
1422 2620

POINTS 1422 double
0.0 1.0 0.0
1.725 1.0 0.0
8.275 1.0 0.0
10.0 1.0 0.0
10.0 0.0 0.0
0.0 0.0 0.0
0.09583333333314978 1.0 0.0
0.1916666666663293 1.0 0.0
0.2874999999994224 1.0 0.0
0.3833333333324708 1.0 0.0
0.4791666666655263 1.0 0.0
0.574999999998553 1.0 0.0
0.6708333333315749 1.0 0.0
0.7666666666645966 1.0 0.0
0.8624999999976839 1.0 0.0
0.9583333333312576 1.0 0.0
1.054166666664865 1.0 0.0
1.149999999998384 1.0 0.0
1.245833333332023 1.0 0.0
1.341666666665662 1.0 0.0
1.437499999999301 1.0 0.0
1.533333333332819 1.0 0.0
1.629166666666443 1.0 0.0
1.824242424242242 1.0 0.0
1.92348484848444 1.0 0.0
2.022727272726717 1.0 0.0
2.121969696968978 1.0 0.0
2.221212121211135 1.0 0.0
2.320454545453434 1.0 0.0
2.419696969695623 1.0 0.0
2.518939393937826 1.0 0.0
2.618181818180112 1.0 0.0
2.717424242422235 1.0 0.0
2.816666666664341 1.0 0.0
2.915909090906411 1.0 0.0
3.015151515148588 1.0 0.0
3.1143939393908 1.0 0.0
3.213636363632884 1.0 0.0
3.312878787875129 1.0 0.0
3.412121212117286 1.0 0.0
3.511363636359531 1.0 0.0
3.610606060601614 1.0 0.0
3.709848484843827 1.0 0.0
3.809090909086003 1.0 0.0
3.90833333332816 1.0 0.0
4.007575757570265 1.0 0.0
4.106818181812215 1.0 0.0
4.20606060605463 1.0 0.0
4.305303030296804 1.0 0.0
4.404545454538924 1.0 0.0
4.503787878781365 1.0 0.0
4.603030303023349 1.0 0.0
4.702272727265711 1.0 0.0
4.80151515150799 1.0 0.0
4.900757575750005 1.0 0.0
4.999999999992499 1.0 0.0
5.099242424235156 1.0 0.0
5.198484848477834 1.0 0.0
5.297727272720327 1.0 0.0
5.396969696963127 1.0 0.0
5.496212121205663 1.0 0.0
5.595454545448268 1.0 0.0
5.694696969690998 1.0 0.0
5.79393939393367 1.0 0.0
5.89318181817668 1.0 0.0
5.992424242419174 1.0 0.0
6.09166666666213 1.0 0.0
6.190909090904857 1.0 0.0
6.290151515147423 1.0 0.0
6.389393939390537 1.0 0.0
6.488636363633031 1.0 0.0
6.587878787875884 1.0 0.0
6.687121212118713 1.0 0.0
6.786363636361205 1.0 0.0
6.885606060604342 1.0 0.0
6.984848484846887 1.0 0.0
7.084090909089381 1.0 0.0
7.183333333331875 1.0 0.0
7.282575757574369 1.0 0.0
7.381818181816861 1.0 0.0
7.481060606059355 1.0 0.0
7.580303030301849 1.0 0.0
7.679545454544343 1.0 0.0
7.778787878786837 1.0 0.0
7.878030303029329 1.0 0.0
7.977272727271822 1.0 0.0
8.076515151514705 1.0 0.0
8.175757575757507 1.0 0.0
8.370833333332062 1.0 0.0
8.46666666666447 1.0 0.0
8.562499999996877 1.0 0.0
8.658333333329285 1.0 0.0
8.754166666662387 1.0 0.0
8.84999999999549 1.0 0.0
8.945833333328592 1.0 0.0
9.041666666661694 1.0 0.0
9.137499999994796 1.0 0.0
9.233333333327899 1.0 0.0
9.329166666661424 1.0 0.0
9.42499999999549 1.0 0.0
9.52083333332944 1.0 0.0
9.616666666663775 1.0 0.0
9.712499999997572 1.0 0.0
9.808333333331985 1.0 0.0
9.904166666665859 1.0 0.0
10.0 0.8999999999995836 0.0
10.0 0.7999999999999998 0.0
10.0 0.7000000000006934 0.0
10.0 0.6000000000013869 0.0
10.0 0.5000000000020587 0.0
10.0 0.4000000000016644 0.0
10.0 0.3000000000012483 0.0
10.0 0.2000000000008322 0.0
10.0 0.100000000000416 0.0
9.9 0.0 0.0
9.799999999999999 0.0 0.0
9.7 0.0 0.0
9.6 0.0 0.0
9.499999999999998 0.0 0.0
9.399999999999999 0.0 0.0
9.299999999999999 0.0 0.0
9.2 0.0 0.0
9.099999999999998 0.0 0.0
8.999999999999998 0.0 0.0
8.899999999999999 0.0 0.0
8.799999999999997 0.0 0.0
8.699999999999998 0.0 0.0
8.599999999999998 0.0 0.0
8.499999999999996 0.0 0.0
8.399999999999997 0.0 0.0
8.299999999999997 0.0 0.0
8.199999999999998 0.0 0.0
8.099999999999998 0.0 0.0
7.999999999999997 0.0 0.0
7.899999999999997 0.0 0.0
7.799999999999997 0.0 0.0
7.699999999999998 0.0 0.0
7.599999999999998 0.0 0.0
7.499999999999998 0.0 0.0
7.399999999999997 0.0 0.0
7.299999999999997 0.0 0.0
7.199999999999998 0.0 0.0
7.099999999999998 0.0 0.0
6.999999999999997 0.0 0.0
6.899999999999998 0.0 0.0
6.799999999999997 0.0 0.0
6.699999999999998 0.0 0.0
6.599999999999998 0.0 0.0
6.499999999999998 0.0 0.0
6.399999999999997 0.0 0.0
6.299999999999998 0.0 0.0
6.199999999999998 0.0 0.0
6.099999999999998 0.0 0.0
5.999999999999997 0.0 0.0
5.899999999999998 0.0 0.0
5.799999999999998 0.0 0.0
5.699999999999998 0.0 0.0
5.599999999999998 0.0 0.0
5.499999999999998 0.0 0.0
5.399999999999999 0.0 0.0
5.299999999999999 0.0 0.0
5.199999999999998 0.0 0.0
5.099999999999999 0.0 0.0
4.999999999999999 0.0 0.0
4.899999999999998 0.0 0.0
4.799999999999999 0.0 0.0
4.699999999999998 0.0 0.0
4.599999999999999 0.0 0.0
4.499999999999998 0.0 0.0
4.399999999999999 0.0 0.0
4.299999999999998 0.0 0.0
4.199999999999999 0.0 0.0
4.099999999999998 0.0 0.0
3.999999999999999 0.0 0.0
3.899999999999999 0.0 0.0
3.799999999999999 0.0 0.0
3.699999999999999 0.0 0.0
3.599999999999999 0.0 0.0
3.499999999999997 0.0 0.0
3.399999999999998 0.0 0.0
3.299999999999999 0.0 0.0
3.199999999999998 0.0 0.0
3.099999999999998 0.0 0.0
2.999999999999999 0.0 0.0
2.899999999999999 0.0 0.0
2.799999999999998 0.0 0.0
2.699999999999998 0.0 0.0
2.599999999999998 0.0 0.0
2.499999999999999 0.0 0.0
2.399999999999999 0.0 0.0
2.299999999999999 0.0 0.0
2.199999999999999 0.0 0.0
2.1 0.0 0.0
1.999999999999998 0.0 0.0
1.899999999999999 0.0 0.0
1.799999999999999 0.0 0.0
1.699999999999999 0.0 0.0
1.6 0.0 0.0
1.5 0.0 0.0
1.4 0.0 0.0
1.299999999999999 0.0 0.0
1.199999999999999 0.0 0.0
1.099999999999998 0.0 0.0
0.9999999999999982 0.0 0.0
0.9000000000000004 0.0 0.0
0.7999999999999989 0.0 0.0
0.6999999999999993 0.0 0.0
0.6000000000000014 0.0 0.0
0.5 0.0 0.0
0.3999999999999986 0.0 0.0
0.2999999999999989 0.0 0.0
0.1999999999999993 0.0 0.0
0.09999999999999964 0.0 0.0
0.0 0.09999999999981467 0.0
0.0 0.1999999999995579 0.0
0.0 0.2999999999992664 0.0
0.0 0.3999999999989749 0.0
0.0 0.4999999999986943 0.0
0.0 0.5999999999989468 0.0
0.0 0.69999999999921 0.0
0.0 0.7999999999994734 0.0
0.0 0.8999999999997368 0.0
0.5416528130348963 0.5422738530971136 0.0
9.45834718695938 0.5422738530971252 0.0
8.32130468532613 0.5332534822225969 0.0
1.678695314672824 0.5332534822225438 0.0
8.896805651027089 0.5495069639701882 0.0
1.103194348967266 0.5495069639690182 0.0
7.811830203679193 0.5553066490395973 0.0
2.173217485647224 0.528390771903637 0.0
4.955041460293185 0.549319354151839 0.0
5.542009165428291 0.5498742440559763 0.0
4.358745096430758 0.5499435718519724 0.0
6.137615039826716 0.5502764485024143 0.0
3.763145809266072 0.5503029907660882 0.0
6.73918662607509 0.5447255768987052 0.0
3.168225596596224 0.5324103934131097 0.0
7.238452182243487 0.5303981967431025 0.0
2.671129631935418 0.5393815118940002 0.0
8.610416666663042 0.7001921286738861 0.0
0.8222639344665514 0.7001013456707859 0.0
9.177736065526313 0.7001013456713036 0.0
1.389583333332481 0.7001921286728889 0.0
5.248106060599075 0.694043994152744 0.0
4.657863919048467 0.691462367154648 0.0
5.838319865837295 0.6915084207358128 0.0
4.062439925974143 0.6915184172873771 0.0
6.433762851419118 0.6915657210233408 0.0
3.466994315447134 0.691574821909364 0.0
7.539664883754709 0.6980237877186588 0.0
9.185335985068319 0.35687987304323515 0.0
0.814664014925943 0.3568798730434852 0.0
1.396276979439103 0.36144632097096885 0.0
8.603723020559439 0.36144632097067436 0.0
7.544461689922496 0.36817249766176413 0.0
6.434327805398462 0.35853699998681293 0.0
3.466432241628079 0.35858035040477076 0.0
4.064649727270247 0.36034046188818963 0.0
5.836125085723671 0.36035536805771473 0.0
4.65306671960384 0.34642445341840705 0.0
5.251142710365074 0.3598222782313327 0.0
8.0724119738553 0.34248866465416933 0.0
1.918075117768747 0.33948660613256976 0.0
8.079018815918129 0.7243124707144514 0.0
1.927216065232658 0.714186041836759 0.0
6.985580314144121 0.7214991463625006 0.0
2.430024938990398 0.34488764824207974 0.0
6.997410713123902 0.34072077847418236 0.0
2.918517762230553 0.34814216078765003 0.0
2.423113233605728 0.7261016946702467 0.0
2.920377483678212 0.7243954141745035 0.0
9.699053824559279 0.7295177021552801 0.0
0.3009461754389854 0.7295177021570887 0.0
9.696309470559369 0.3323475679475075 0.0
0.3036905294390627 0.3323475679474637 0.0
8.31422860662159 0.7761338123486328 0.0
1.685771393377538 0.7761338123490612 0.0
8.881277521719191 0.7841837352473817 0.0
1.08693277605474 0.7841859671359918 0.0
0.5820482539954717 0.7818841570364428 0.0
9.417951745998092 0.7818841570365285 0.0
8.861323436265435 0.2884285719742388 0.0
1.138676563731155 0.2884285719745848 0.0
8.36715299313169 0.27995185667473743 0.0
1.632847006864523 0.2799518566751331 0.0
0.5592119546333989 0.2676453495647513 0.0
9.440788045361822 0.2676453495651598 0.0
5.598904149172106 0.29446343385711254 0.0
3.724084204881923 0.28296524729780936 0.0
4.301826964989718 0.294458900644924 0.0
6.176633311559795 0.28296116907201085 0.0
5.016878992323143 0.7763980985118538 0.0
5.487716034093063 0.7724953452322119 0.0
4.419020376039908 0.7765485712601895 0.0
6.077172299642579 0.7768738429209257 0.0
3.823597865105137 0.7768799431516876 0.0
6.695095279153011 0.7934856853821193 0.0
3.20688864776639 0.7937884717549271 0.0
7.77871837091808 0.28296843739612176 0.0
7.274903151807777 0.793692835421818 0.0
2.180238809817972 0.7741963111224737 0.0
7.805688072883944 0.7860962942545432 0.0
4.901803154414495 0.2918888649360911 0.0
7.287794640069604 0.2789451368819924 0.0
3.210920684618798 0.28253431719943395 0.0
6.689794150143623 0.28253974963272566 0.0
2.156036907645596 0.24749766045964183 0.0
2.668105254439311 0.28194238369317787 0.0
2.66722354693487 0.7985399057471626 0.0
0.2142980634894686 0.5360832257905973 0.0
9.785701936510634 0.5360832257908263 0.0
3.618884972738575 0.8255239689394509 0.0
6.281882814068963 0.8255249686478855 0.0
4.214275312217184 0.8255301598715301 0.0
5.686493650616455 0.8255312365025578 0.0
4.809647469550773 0.825541737033137 0.0
5.412319816341697 0.23487757506338003 0.0
4.488164025767657 0.2346608307115517 0.0
5.089626984106869 0.2339928261216232 0.0
6.012137641186841 0.23559307260073403 0.0
3.888584511070561 0.23562639284048514 0.0
0.950177985214236 0.22572485290067063 0.0
9.049822014781324 0.22572485290058464 0.0
6.340835285871445 0.5242845374575117 0.0
3.559928345216078 0.524305510714367 0.0
[...]
POINT_DATA 1422
VECTORS vector double
1.0 0.0 0.0
0.0 0.0 0.0
0.0 0.0 0.0
0.0 0.0 0.0
1.07962803321 0.0 0.0
1.0 0.0 0.0
0.0 0.0 0.0
0.0 0.0 0.0
0.0 0.0 0.0
0.0 0.0 0.0
0.0 0.0 0.0
0.0 0.0 0.0
0.0 0.0 0.0
0.0 0.0 0.0
0.0 0.0 0.0
0.0 0.0 0.0
0.0 0.0 0.0
0.0 0.0 0.0
0.0 0.0 0.0
0.0 0.0 0.0
0.0 0.0 0.0
0.0 0.0 0.0
0.0 0.0 0.0
0.0 0.0 0.0
0.0 0.0 0.0
0.0 0.0 0.0
0.0 0.0 0.0
0.0 0.0 0.0
0.0 0.0 0.0
0.0 0.0 0.0
0.0 0.0 0.0
0.0 0.0 0.0
0.0 0.0 0.0
0.0 0.0 0.0
0.0 0.0 0.0
0.0 0.0 0.0
0.0 0.0 0.0
0.0 0.0 0.0
0.0 0.0 0.0
0.0 0.0 0.0
0.0 0.0 0.0
0.0 0.0 0.0
0.0 0.0 0.0
0.0 0.0 0.0
0.0 0.0 0.0
0.0 0.0 0.0
0.0 0.0 0.0
0.0 0.0 0.0
0.0 0.0 0.0
0.0 0.0 0.0
0.0 0.0 0.0
0.0 0.0 0.0
0.0 0.0 0.0
0.0 0.0 0.0
0.0 0.0 0.0
0.0 0.0 0.0
0.0 0.0 0.0
0.0 0.0 0.0
0.0 0.0 0.0
0.0 0.0 0.0
0.0 0.0 0.0
0.0 0.0 0.0
0.0 0.0 0.0
0.0 0.0 0.0
0.0 0.0 0.0
0.0 0.0 0.0
0.0 0.0 0.0
0.0 0.0 0.0
0.0 0.0 0.0
0.0 0.0 0.0
0.0 0.0 0.0
0.0 0.0 0.0
0.0 0.0 0.0
0.0 0.0 0.0
0.0 0.0 0.0
0.0 0.0 0.0
0.0 0.0 0.0
0.0 0.0 0.0
0.0 0.0 0.0
0.0 0.0 0.0
0.0 0.0 0.0
0.0 0.0 0.0
0.0 0.0 0.0
0.0 0.0 0.0
0.0 0.0 0.0
0.0 0.0 0.0
0.0 0.0 0.0
0.0 0.0 0.0
0.0 0.0 0.0
0.0 0.0 0.0
0.0 0.0 0.0
0.0 0.0 0.0
0.0 0.0 0.0
0.0 0.0 0.0
0.0 0.0 0.0
0.0 0.0 0.0
0.0 0.0 0.0
0.0 0.0 0.0
0.0 0.0 0.0
0.0 0.0 0.0
0.0 0.0 0.0
0.0 0.0 0.0
0.0 0.0 0.0
0.0 0.0 0.0
0.0 0.0 0.0
0.745777758166 0.0691047764783 0.0
1.05163859415 0.00792905443109 0.0
1.07892831866 0.000466952330239 0.0
1.07902279355 0.000868436803703 0.0
1.08024403694 0.000247022997559 0.0
1.08021756191 0.000251274945212 0.0
1.08076088686 4.70687749097e-05 0.0
1.08072758746 3.11171196546e-05 0.0
1.08124601171 -3.91157415231e-06 0.0
1.08122347646 0.0 0.0
1.08099388233 0.0 0.0
1.08119755292 0.0 0.0
1.08139209219 0.0 0.0
1.08154159463 0.0 0.0
1.08189869671 0.0 0.0
1.08210972238 0.0 0.0
1.08236305381 0.0 0.0
1.0827444038 0.0 0.0
1.08301669 0.0 0.0
1.08329687385 0.0 0.0
1.08399693059 0.0 0.0
1.08429550428 0.0 0.0
1.08451757165 0.0 0.0
1.08482705516 0.0 0.0
1.08496185371 0.0 0.0
1.08514216417 0.0 0.0
1.0853633636 0.0 0.0
1.0854080208 0.0 0.0
1.08539504968 0.0 0.0
1.08548481581 0.0 0.0
1.08529099739 0.0 0.0
1.08487219838 0.0 0.0
1.0844445375 0.0 0.0
1.0838224393 0.0 0.0
1.08302320143 0.0 0.0
1.08239106837 0.0 0.0
1.08169814915 0.0 0.0
1.08126130432 0.0 0.0
1.08094518388 0.0 0.0
1.08068710024 0.0 0.0
1.08050494665 0.0 0.0
1.08039511961 0.0 0.0
1.08025129793 0.0 0.0
1.07992053528 0.0 0.0
1.0795713179 0.0 0.0
1.07911838632 0.0 0.0
1.07821001722 0.0 0.0
1.07871585304 0.0 0.0
1.07834417488 0.0 0.0
1.07833171922 0.0 0.0
1.07830270742 0.0 0.0
1.07854322629 0.0 0.0
1.0781542458 0.0 0.0
1.07890840182 0.0 0.0
1.07910696944 0.0 0.0
1.07938221221 0.0 0.0
1.07974954186 0.0 0.0
1.08009159317 0.0 0.0
1.08065393417 0.0 0.0
1.08042472324 0.0 0.0
1.08133603362 0.0 0.0
1.08161664052 0.0 0.0
1.08194635721 0.0 0.0
1.08226149724 0.0 0.0
1.08195153444 0.0 0.0
1.08253335159 0.0 0.0
1.08266728673 0.0 0.0
1.08280594408 0.0 0.0
1.08292731751 0.0 0.0
1.08302711207 0.0 0.0
1.08335942847 0.0 0.0
1.08283164345 0.0 0.0
1.0835259437 0.0 0.0
1.08365786771 0.0 0.0
1.08373948555 0.0 0.0
1.0836591465 0.0 0.0
1.08349951937 0.0 0.0
1.08299430265 0.0 0.0
1.08246183646 0.0 0.0
1.08182130733 0.0 0.0
1.08110818448 0.0 0.0
1.08067045825 0.0 0.0
1.08022211406 0.0 0.0
1.07975881884 0.0 0.0
1.07954480267 0.0 0.0
1.07938847915 0.0 0.0
1.07944501907 0.0 0.0
1.07948316021 0.0 0.0
1.07964105107 0.0 0.0
1.0799166965 0.0 0.0
1.0802125409 0.0 0.0
1.08054897076 0.0 0.0
1.08089400566 0.0 0.0
1.08102538591 0.0 0.0
1.08101507587 0.0 0.0
1.08089926685 0.0 0.0
1.08039557297 0.0 0.0
1.07898031222 0.0 0.0
1.07755271057 0.0 0.0
1.07524829442 0.0 0.0
1.07276914157 0.0 0.0
1.06943383352 0.0 0.0
1.06651873424 0.0 0.0
1.06226667776 0.0 0.0
1.05738601596 0.0 0.0
1.03675275269 0.0 0.0
1.01913660945 0.0 0.0
1.00688546338 0.0 0.0
1.0 0.0 0.0
1.0 0.0 0.0
1.0 0.0 0.0
1.0 0.0 0.0
1.0 0.0 0.0
1.0 0.0 0.0
1.0 0.0 0.0
1.0 0.0 0.0
1.0 0.0 0.0
1.08779479832 -0.0466724653463 0.0
1.08062437345 0.00102570946424 0.0
1.08292911518 0.00162676405972 0.0
1.07822754085 0.00274977878676 0.0
1.08352443425 0.00434989993424 0.0
1.08726072788 -0.000892667143137 0.0
1.08843714166 -0.00118044829184 0.0
1.0782705583 0.00163782693079 0.0
1.08021729285 0.00479574651724 0.0
1.07929676901 0.00167390073429 0.0
1.0818913559 0.00181785008181 0.0
1.07456660258 -0.00186204694766 0.0
1.08091702558 0.0018631077512 0.0
1.08276068724 0.00226793768699 0.0
1.08684576611 -0.0026324649293 0.0
1.07890576217 -0.00536092775334 0.0
1.07797391149 -0.00306215355361 0.0
1.09453541958 -0.00796261104173 0.0
1.10512141888 -0.0156794605844 0.0
1.07954136437 -0.00147313452157 0.0
1.08917024853 -0.000431202938327 0.0
1.0759846517 -0.00597206316426 0.0
1.08726207856 -0.00586066091572 0.0
1.0763517622 0.00191759959614 0.0
1.08623712766 -0.00731688219338 0.0
1.08353745952 -0.0123662175799 0.0
1.08818644631 0.00324701837749 0.0
1.08764994272 -0.00993206355921 0.0
1.0821776625 0.00129556202974 0.0
1.08005451177 -0.0135922396562 0.0
1.08230610472 0.000669451864549 0.0
1.08488506316 0.000497706425384 0.0
1.08469480099 -0.00306677959832 0.0
1.08037733821 -0.00204871959555 0.0
1.08468510094 0.000778724117138 0.0
1.08262933739 8.81939027699e-05 0.0
1.07744745198 0.000508085801911 0.0
1.08219324479 0.000821374051704 0.0
1.07891656483 0.00100818176743 0.0
1.08575007888 0.000586219518842 0.0
1.07942403039 0.000829379239856 0.0
1.09126433928 0.0046291239635 0.0
1.08330100388 -0.00520430530269 0.0
1.07400147563 0.00898476422818 0.0
1.07856732345 -0.00063422221111 0.0
1.07967421031 -0.000437350718912 0.0
1.08212970636 -0.00278718007067 0.0
1.07632573186 -0.00402314214246 0.0
1.07742165054 -0.017231281331 0.0
1.08833486512 0.00117084314048 0.0
1.10785341445 -0.146718336395 0.0
1.08091962878 0.000443100851384 0.0
1.02916285672 -0.0477819423198 0.0
1.04951057535 0.0123702330078 0.0
1.04584357512 0.00756239902542 0.0
1.0717014193 0.0176079147774 0.0
1.07147257068 0.0185858836454 0.0
1.10841240638 -0.0310105598581 0.0
1.07139873151 0.0102504398652 0.0
1.08398336354 0.00128165615683 0.0
1.0823244458 -0.00248688214726 0.0
1.08492262771 0.000506329684255 0.0
1.08072623815 0.00106524662601 0.0
1.05800816825 -0.0231428326891 0.0
1.08156653319 0.000605499381444 0.0
1.07846759275 0.000655835540333 0.0
1.08301114698 0.000608704148245 0.0
1.08254879163 0.000473253464126 0.0
1.07800883006 -0.000998762933594 0.0
1.07262291844 0.00940811575688 0.0
1.07386798446 0.0123507570822 0.0
1.07084931157 0.00270267486713 0.0
1.06924891475 0.00498268411468 0.0
1.07367246738 0.00159210790775 0.0
1.06281134878 0.00125983383411 0.0
1.05440032171 0.0105027545437 0.0
1.08589920845 -0.000858492469654 0.0
1.04612624986 -0.0171569880628 0.0
1.06718088213 0.0155017945355 0.0
1.06657110754 0.00248418349969 0.0
1.08094392509 0.00136249992495 0.0
1.08178288485 -0.00199295019992 0.0
1.08426143764 -0.000962753713708 0.0
1.08086265902 -0.000246934524367 0.0
1.07920759995 0.000351652848718 0.0
1.08004714711 -0.00147360711317 0.0
1.04496385613 -0.00124444459535 0.0
1.03400022946 -0.0890136478325 0.0
1.08086872321 0.00124396940336 0.0
1.01502978315 0.0109261077564 0.0
1.0280467772 -0.0134909847161 0.0
1.02174585264 0.0183499994339 0.0
1.02978525409 -0.00887806669917 0.0
1.02396817046 0.02127086275 0.0
1.07896131283 0.000602996530262 0.0
1.08239247655 0.000518152628259 0.0
1.07999116387 0.00109843152547 0.0
1.07804189659 -0.000281718772226 0.0
1.08302287563 0.000330437418878 0.0
1.07905318249 -0.00528030267784 0.0
1.08296817576 0.000959934884274 0.0
1.07852545849 -0.00505553807074 0.0
1.08437561711 0.00281892973261 0.0
1.08416037839 7.53856869445e-05 0.0
1.07726301403 0.00163234530826 0.0
1.08654972835 0.00227444261318 0.0
1.07921574759 0.000269435179799 0.0
1.08157551414 0.00145502701383 0.0
1.088600881 -0.0245353962953 0.0
1.08500777562 -0.000744218162578 0.0
1.08297148808 0.00263694782831 0.0
1.0774455322 -0.000357038180015 0.0
1.08400568586 0.00182089168224 0.0
1.08055133605 -0.00610540938298 0.0
1.07772569568 0.00190770122943 0.0
1.07897971159 0.000284318303329 0.0
1.07865878787 0.00176024892385 0.0
1.08232612083 -0.000278696654488 0.0
1.08450933291 0.000754136909224 0.0
1.08685234186 0.00169268462429 0.0
1.08139532573 0.00203589683298 0.0
1.09114313898 -0.00998602864278 0.0
1.08371608402 -0.00662015785487 0.0
1.08355386973 -0.00288509889849 0.0
1.0865581293 0.00072665528948 0.0
1.08204843348 -0.0010674505607 0.0
1.07641871168 0.000965246927435 0.0
1.08702906658 -0.00417691134163 0.0
0.948806454829 -0.023843202806 0.0
0.962652665128 0.01459348773 0.0
0.974420597099 0.0210213279571 0.0
0.994532898342 0.0143579299675 0.0
0.997045785344 -0.00903094850463 0.0
0.964381492231 -0.0154744810161 0.0
0.990822101079 0.0139519094815 0.0
0.99685737245 0.022122835829 0.0
0.998356747772 0.00587882946641 0.0
1.08566872534 -0.000111303764583 0.0
0.939943834966 -0.00750606686098 0.0
1.0809254349 -0.000944494807468 0.0
1.08044253091 -0.000169946366298 0.0
1.08321145673 -0.00129460039447 0.0
1.07997181529 0.00065622162829 0.0
1.085132208 0.000340559272441 0.0
0.947794522732 -0.0229329744046 0.0
0.949157984151 -0.000850732055162 0.0
0.92870029851 -0.00402280637572 0.0
0.976900751662 -0.058900954456 0.0
0.995790301649 0.000208791908327 0.0
1.10591854635 -0.166759215327 0.0
0.970056974968 -0.00871452950141 0.0
1.0834357963 -0.00158724246034 0.0
0.961718345258 -0.0240731336106 0.0
0.975243087153 0.0177316672989 0.0
0.95952774889 -0.0230777180563 0.0
0.945857365848 -0.00748840022257 0.0
0.930564356191 -0.00329252923073 0.0
1.0819862522 0.000641249033694 0.0
1.06905135097 -0.00958515576924 0.0
1.08141502126 0.000252968276376 0.0
1.08477372948 0.000360021326635 0.0
0.973042399828 -0.0236196382701 0.0
1.08092573966 0.000156318080312 0.0
1.00523560738 -0.0286985895637 0.0
1.08375208957 0.000361606482247 0.0
1.07935624528 -0.000898574949338 0.0
1.08266954252 0.000192032183227 0.0
1.07806563214 0.000199872377994 0.0
1.08160901253 0.000572464941757 0.0
1.08127477381 0.000341335467228 0.0
1.03475315307 -0.0233468225449 0.0
1.0829257448 0.00200404809281 0.0
1.08419494976 -0.00513942140049 0.0
0.96494823136 0.0253719359872 0.0
0.978228894369 -0.0216470763209 0.0
1.07907732553 -0.000186685248326 0.0
1.08035192461 -0.000598371159068 0.0
1.08417908551 -9.42856663494e-05 0.0
0.920841808574 -0.0168127766111 0.0
1.08449512421 0.000579300027461 0.0
1.08178652294 -0.000555886973591 0.0
1.08503471654 0.00107596546358 0.0
1.07959189913 0.00135611122051 0.0
0.938113693893 -0.0344027215667 0.0
1.07915011069 0.00690668770183 0.0
0.927393731814 0.0206811698757 0.0
0.888642148788 -0.00712240672217 0.0
0.953837388624 -0.0187178610877 0.0
1.07949191315 0.000387680222208 0.0
1.07991227914 -0.00215322610201 0.0
1.0709276424 -0.00590516149707 0.0
1.08481096367 -0.0012425373567 0.0
1.08126878539 -0.00122813139825 0.0
1.08661450331 -0.000338347623581 0.0
1.07936941371 -0.00052684977734 0.0
0.938417159468 0.0119255442443 0.0
1.08923680477 -0.00535517431535 0.0
1.08056964982 0.000450224023981 0.0
1.08396389082 -0.00230994111782 0.0
1.07791207027 0.00414841782101 0.0
1.0847127363 0.00616412589129 0.0
1.07200851976 -0.00552546129167 0.0
1.08176462639 0.00588737385611 0.0
1.08498826532 0.00980063655625 0.0
1.07942858167 0.000585720618805 0.0
1.07682705925 -0.004546561821 0.0
1.07959837046 0.0108662697143 0.0
1.09021923572 -0.000940624339849 0.0
1.07713785385 -0.000414578644816 0.0
1.08243579413 0.000412945056737 0.0
1.079805368 0.00195500766394 0.0
1.08181798309 0.000696326241578 0.0
1.07754261899 -0.0935953361895 0.0
1.08234023187 0.00065105925453 0.0
1.07942023216 0.00112403081403 0.0
1.08944827417 0.00958190279987 0.0
1.09783609758 0.00318793811575 0.0
1.07582159182 0.00405512648965 0.0
1.07894128768 0.000883985857754 0.0
1.07960041518 0.00115646847538 0.0
1.08900848659 0.000757356400484 0.0
1.08113508015 0.000697390209695 0.0
1.0545038796 -0.043328561519 0.0
1.08431797867 0.00670091702732 0.0
1.07411797911 -0.000683643885851 0.0
1.07841913898 0.000235313388965 0.0
1.07881721956 -0.00163536093091 0.0
1.0821511003 0.00628571438438 0.0
1.07462607345 0.00157969773705 0.0
1.07737671077 -0.00135969285709 0.0
1.07427744591 -0.00710022985173 0.0
1.08015454272 -0.00307291730597 0.0
1.07977056089 0.00298597542852 0.0
1.02595803171 -0.115493463081 0.0
1.08058883224 0.000432618268111 0.0
1.00964551884 -0.045176064168 0.0
1.07617674857 -0.00141333920208 0.0
1.08483119909 0.00150655456053 0.0
1.0834636066 -0.000551698726311 0.0
1.07776470482 -0.00226741053862 0.0
1.12242630843 -0.0801646991951 0.0
1.08491400518 -0.00615996829416 0.0
1.10117094993 -0.0288925708058 0.0
1.08078071278 0.00346457870733 0.0
1.08446671633 0.000457299026077 0.0
1.08080966858 0.00213345884533 0.0
1.07516948497 -0.0297531798412 0.0
1.08149504487 0.0010503049928 0.0
1.08549747082 -0.000921916047393 0.0
1.08195417033 -0.000380843036821 0.0
1.08666937494 -0.00191998707552 0.0
1.0732301875 0.00338812095674 0.0
1.07966093105 -0.013403097713 0.0
1.08237718527 0.000922906549822 0.0
1.07657221399 -0.00341498640128 0.0
1.08165497332 -0.00393327489337 0.0
1.08882556293 -0.000701395453574 0.0
1.08716466623 -0.000162687279796 0.0
1.07632933711 -0.00394111327316 0.0
1.07289795347 0.00391850148819 0.0
1.08164224549 0.00226460714269 0.0
1.07831918111 0.00109280316684 0.0
1.08292120878 0.000764053357088 0.0
1.07753361891 -0.0023673113122 0.0
1.0830391447 0.00158564191727 0.0
0.893426551028 0.0072551957422 0.0
0.809040262391 0.0274573481909 0.0
0.819838899238 0.0127038716126 0.0
0.80332467385 0.0242432755899 0.0
0.834491753079 -0.0246093584133 0.0
1.07865235482 0.000368997707249 0.0
0.804403515945 0.0207204652305 0.0
1.08237837353 0.00029621871461 0.0
1.08047068761 0.000785131819573 0.0
1.07822841653 -0.000397134138776 0.0
1.08303911066 0.000275737180321 0.0
1.08065478221 -0.000330398835646 0.0
1.08550930181 0.000196740080768 0.0
1.07930875303 -0.00214739786137 0.0
1.0828483401 0.00076091459219 0.0
0.779799945235 0.00871499410654 0.0
0.780052552196 -0.000740190118138 0.0
0.841704654451 0.0112306607256 0.0
1.08204445036 0.000455373447277 0.0
0.845155547972 -0.00531412863583 0.0
0.73860761435 -0.0271034269241 0.0
0.756858743799 0.00242054012862 0.0
0.761045842015 0.0200187064276 0.0
0.78421994263 0.00234325523672 0.0
1.0815169504 -0.00104503423651 0.0
0.785925322721 0.0320416481525 0.0
0.725549379897 0.0360176968244 0.0
0.828021239911 -0.00427185736987 0.0
0.817254475339 0.0132841899367 0.0
0.951680158333 -0.1070804776 0.0
1.08294317288 0.00011714032285 0.0
1.07816530466 7.42689499915e-05 0.0
1.08054374825 -0.000159788039876 0.0
0.869680420453 -0.00239559063598 0.0
0.839727736141 -0.00524993939465 0.0
0.751304851568 -0.040454489523 0.0
0.730211106894 0.03110254462 0.0
0.84104214359 -0.00501043320088 0.0
1.08351433291 -0.000644950994531 0.0
1.08753531919 0.000900312229339 0.0
1.09087654022 -0.00072658637069 0.0
1.08158496977 0.00038693580872 0.0
1.0546819797 -0.00967967609384 0.0
1.07476331486 0.00121038231723 0.0
1.08058056202 0.000556175043067 0.0
1.08510775927 0.00031464745282 0.0
1.04063830303 -0.0676346023724 0.0
1.08104334237 0.000671230840502 0.0
1.08522830402 -0.000496551198466 0.0
0.716774438342 0.0282071930922 0.0
1.07918854738 0.000713038647828 0.0
1.07926514937 0.00018341871634 0.0
1.08021782116 -0.000579343665469 0.0
1.08107282663 0.00020521541942 0.0
1.02644173796 -0.0278443174054 0.0
1.0747551114 -0.00422530368203 0.0
1.08239927437 0.000477049943015 0.0
0.623426764253 -0.00131886766477 0.0
1.08229500747 0.00750305514052 0.0
1.09009799633 0.00321318870175 0.0
0.613158880652 -0.0209965568817 0.0
0.719465983176 -0.0340226675748 0.0
1.08378027758 0.000900275478244 0.0
1.0789460649 -0.0018309285293 0.0
1.07803971188 0.000577155550302 0.0
1.08284700971 0.00026432756537 0.0
1.08024399937 0.00356634349492 0.0
1.08064470889 0.0039364743966 0.0
0.70692148751 0.00542573925549 0.0
1.07307203926 -0.00119323085146 0.0
1.07976677373 0.00266680330035 0.0
1.07917792189 0.00834759518083 0.0
0.713032645675 -0.0228111163866 0.0
1.08191586517 0.00108970905473 0.0
0.637688199479 0.0162981175542 0.0
0.668146265509 -0.00917969910774 0.0
0.642449439064 0.015011390292 0.0
0.659474174065 0.0280657648509 0.0
1.08926267343 -0.000776953702703 0.0
1.08322080678 -0.00257192141192 0.0
1.08518900603 -0.00185844039138 0.0
1.07818560489 0.000301623381668 0.0
1.08256779311 0.000226495936583 0.0
1.08117949749 0.000607386829602 0.0
1.08187114895 0.000961264556877 0.0
1.07300587504 -0.0164977250564 0.0
1.08092470064 -0.00109261988579 0.0
1.08155567036 0.0007034755641 0.0
1.08471367128 0.000442895389592 0.0
1.08478282545 2.68293329361e-05 0.0
1.0808537133 0.00124001687911 0.0
1.1036162108 -0.0501312458772 0.0
1.08340600276 0.000308901796452 0.0
1.07890299013 -0.000645115292997 0.0
1.08427874382 -0.00277614773785 0.0
1.08389169184 0.00236391826705 0.0
1.08197478996 -0.000877367356673 0.0
1.07975121575 0.000455852386934 0.0
1.08611075674 0.00210891489848 0.0
0.680342852036 -0.00469675072689 0.0
0.715171476819 -0.00421201769275 0.0
1.08969221946 -0.000770121846709 0.0
0.617098111706 0.000863344057866 0.0
1.07620015588 -0.00817295259329 0.0
1.08202826273 0.00108096716464 0.0
0.805043193583 -0.0162839759811 0.0
1.07862986048 0.000721616176045 0.0
1.07425402294 -0.00180121549519 0.0
1.07822489018 -0.00106932959866 0.0
1.07567733372 0.00624033112347 0.0
1.08023322416 0.00239887351093 0.0
1.08390627512 0.000615358985768 0.0
1.08074495547 -0.00103745084129 0.0
0.659199935734 0.0133296764123 0.0
0.693287059152 -0.00151756374109 0.0
0.602897316678 -0.0235940133883 0.0
1.08266574542 -0.000928887942139 0.0
1.07972062965 0.000534376150554 0.0
1.08288911588 -0.00460153013745 0.0
1.00908947598 -0.0495161131367 0.0
1.08006875315 0.00105047472976 0.0
1.08084134056 0.000310453689674 0.0
1.08473853056 0.000234756667477 0.0
1.07904154408 0.000376633434501 0.0
1.07705460638 0.0013519894743 0.0
1.08371553876 -0.00164183399988 0.0
1.08686473133 0.00274094459554 0.0
1.08261388447 -0.00639923056252 0.0
1.08411022257 -0.00044734694853 0.0
1.07695901122 0.000323615381019 0.0
0.553987692674 -0.00270920850408 0.0
0.59111086298 0.0228738444566 0.0
0.660937967461 -0.0244185292265 0.0
1.08190624573 0.00149211826051 0.0
1.08751199684 -0.0157792772139 0.0
1.08530534893 0.000478484738218 0.0
1.08314493142 0.00109515127723 0.0
1.07927005952 -0.000301000142375 0.0
1.08163113315 0.00144588825185 0.0
1.09609401331 -0.0175476568673 0.0
1.08550569107 0.00241937376321 0.0
1.08778580992 -0.00166426059251 0.0
1.07887969058 -0.000273848606589 0.0
0.684985014486 -0.0116228663152 0.0
1.08758761522 -0.0066619441803 0.0
0.782439753594 -0.00388912197751 0.0
0.726831514644 0.00628705014347 0.0
1.07942341158 0.00134257796529 0.0
0.501457027779 0.00485008210097 0.0
0.501149707179 -0.0122292422301 0.0
1.07965065136 -0.000503500284283 0.0
1.08368564202 8.32442037609e-05 0.0
1.08522223037 -0.000214195033717 0.0
1.07902212561 0.000816085364129 0.0
0.584281570665 0.000574056856165 0.0
1.08505488992 -0.00435981559428 0.0
1.08226709645 0.000599762528333 0.0
1.08420702713 0.00322155838002 0.0
1.07294234439 0.00783357558138 0.0
1.06826702786 -0.00675943352607 0.0
1.07188083801 0.0124986709316 0.0
1.07075536876 0.00663997707454 0.0
1.07540354031 0.00469500047766 0.0
1.08267706559 0.000846290649 0.0
1.06955620929 -0.0178356912302 0.0
1.07697261701 0.0119061417932 0.0
1.07256631711 -0.00433653101903 0.0
1.05706426038 -0.0158383581692 0.0
1.06599159595 0.00716388117888 0.0
1.02617098417 -0.0961829730615 0.0
1.07719880224 -0.00812406171629 0.0
1.08250781183 0.000985431401572 0.0
1.06257805366 -0.109687142058 0.0
1.08200185787 0.00167991872395 0.0
1.07325634786 0.0178214560537 0.0
1.0022604146 -0.0186335054019 0.0
1.08070540139 0.00013659752329 0.0
1.08115110191 -0.00356265647184 0.0
1.08545688431 0.00147744402146 0.0
1.08094301556 -0.0022162923382 0.0
1.0787569661 0.000715046883838 0.0
1.0828873277 -0.000438125491842 0.0
1.07700994797 0.000875812795645 0.0
1.08243394766 0.000548000638636 0.0
1.08029749612 -0.000247829269586 0.0
1.08281196125 0.000592670961823 0.0
1.07865727732 0.00086902820235 0.0
1.08361983245 -0.000225971157024 0.0