# vtk DataFile Version 2.0
2D Simulation Python
ASCII
DATASET UNSTRUCTURED_GRID
FIELD FieldData 1
NODES 1 2 int
2790 1289

POINTS 2790 double
0.0 1.0 0.0
1.725 1.0 0.0
8.275 1.0 0.0
20.0 1.0 0.0
20.0 0.0 0.0
0.0 0.0 0.0
0.1916666666663293 1.0 0.0
0.3833333333324708 1.0 0.0
0.574999999998553 1.0 0.0
0.7666666666645966 1.0 0.0
0.9583333333312576 1.0 0.0
1.149999999998384 1.0 0.0
1.341666666665662 1.0 0.0
1.533333333332819 1.0 0.0
0.0958333333331406 1.0 0.0
0.2874999999994247 1.0 0.0
0.4791666666655395 1.0 0.0
0.6708333333315728 1.0 0.0
0.8624999999976626 1.0 0.0
1.054166666664886 1.0 0.0
1.245833333332057 1.0 0.0
1.437499999999343 1.0 0.0
1.629166666666455 1.0 0.0
1.92348484848444 1.0 0.0
2.121969696968978 1.0 0.0
2.320454545453434 1.0 0.0
2.518939393937826 1.0 0.0
2.717424242422235 1.0 0.0
2.915909090906411 1.0 0.0
3.1143939393908 1.0 0.0
3.312878787875129 1.0 0.0
3.511363636359531 1.0 0.0
3.709848484843827 1.0 0.0
3.90833333332816 1.0 0.0
4.106818181812215 1.0 0.0
4.305303030296804 1.0 0.0
4.503787878781365 1.0 0.0
4.702272727265711 1.0 0.0
4.900757575750005 1.0 0.0
5.099242424235156 1.0 0.0
5.297727272720327 1.0 0.0
5.496212121205663 1.0 0.0
5.694696969690998 1.0 0.0
5.89318181817668 1.0 0.0
6.09166666666213 1.0 0.0
6.290151515147423 1.0 0.0
6.488636363633031 1.0 0.0
6.687121212118713 1.0 0.0
6.885606060604342 1.0 0.0
7.084090909089381 1.0 0.0
7.282575757574369 1.0 0.0
7.481060606059355 1.0 0.0
7.679545454544343 1.0 0.0
7.878030303029329 1.0 0.0
8.076515151514705 1.0 0.0
1.824242424242199 1.0 0.0
2.022727272726695 1.0 0.0
2.221212121211181 1.0 0.0
2.41969696969563 1.0 0.0
2.618181818180092 1.0 0.0
2.816666666664316 1.0 0.0
3.015151515148624 1.0 0.0
3.213636363633039 1.0 0.0
3.412121212117267 1.0 0.0
3.610606060601583 1.0 0.0
3.809090909085975 1.0 0.0
4.007575757570153 1.0 0.0
4.206060606054539 1.0 0.0
4.404545454539001 1.0 0.0
4.603030303023853 1.0 0.0
4.801515151507715 1.0 0.0
4.999999999992074 1.0 0.0
5.198484848477777 1.0 0.0
5.396969696963081 1.0 0.0
5.595454545448261 1.0 0.0
5.793939393933949 1.0 0.0
5.992424242419331 1.0 0.0
6.190909090904785 1.0 0.0
6.389393939390224 1.0 0.0
6.587878787875795 1.0 0.0
6.786363636361617 1.0 0.0
6.984848484846598 1.0 0.0
7.183333333331875 1.0 0.0
7.381818181816625 1.0 0.0
7.580303030301849 1.0 0.0
7.778787878786936 1.0 0.0
7.977272727272114 1.0 0.0
8.175757575757618 1.0 0.0
8.473728813558951 1.0 0.0
8.672457627118133 1.0 0.0
8.871186440676855 1.0 0.0
9.069915254236154 1.0 0.0
9.268644067794812 1.0 0.0
9.467372881354057 1.0 0.0
9.666101694912944 1.0 0.0
9.864830508471961 1.0 0.0
10.06355932203108 1.0 0.0
10.26228813558986 1.0 0.0
10.46101694914916 1.0 0.0
10.65974576270777 1.0 0.0
10.85847457626706 1.0 0.0
11.05720338982589 1.0 0.0
11.25593220338497 1.0 0.0
11.45466101694402 1.0 0.0
11.65338983050287 1.0 0.0
11.85211864406215 1.0 0.0
12.05084745762035 1.0 0.0
12.24957627117938 1.0 0.0
12.44830508473794 1.0 0.0
12.64703389829659 1.0 0.0
12.84576271185557 1.0 0.0
13.04449152541379 1.0 0.0
13.24322033897301 1.0 0.0
13.44194915253121 1.0 0.0
13.6406779660903 1.0 0.0
13.83940677964874 1.0 0.0
14.03813559320751 1.0 0.0
14.23686440676681 1.0 0.0
14.43559322032663 1.0 0.0
14.63432203388679 1.0 0.0
14.8330508474463 1.0 0.0
15.0317796610067 1.0 0.0
15.23050847456608 1.0 0.0
15.42923728812645 1.0 0.0
15.62796610168606 1.0 0.0
15.82669491524602 1.0 0.0
16.02542372880584 1.0 0.0
16.22415254236431 1.0 0.0
16.42288135592496 1.0 0.0
16.62161016948498 1.0 0.0
16.82033898304518 1.0 0.0
17.01906779660567 1.0 0.0
17.2177966101654 1.0 0.0
17.41652542372565 1.0 0.0
17.61525423728425 1.0 0.0
17.81398305084494 1.0 0.0
18.01271186440355 1.0 0.0
18.21144067796387 1.0 0.0
18.41016949152309 1.0 0.0
18.6088983050827 1.0 0.0
18.80762711864282 1.0 0.0
19.00635593220153 1.0 0.0
19.20508474576211 1.0 0.0
19.40381355932072 1.0 0.0
19.60254237288117 1.0 0.0
19.80127118644013 1.0 0.0
8.374364406779554 1.0 0.0
8.573093220338519 1.0 0.0
8.771822033897509 1.0 0.0
8.970550847456504 1.0 0.0
9.169279661015429 1.0 0.0
9.368008474574502 1.0 0.0
9.566737288133496 1.0 0.0
9.765466101692677 1.0 0.0
9.964194915251602 1.0 0.0
10.16292372881015 1.0 0.0
10.36165254236967 1.0 0.0
10.56038135592849 1.0 0.0
10.75911016948728 1.0 0.0
10.95783898304648 1.0 0.0
11.15656779660554 1.0 0.0
11.35529661016447 1.0 0.0
11.55402542372345 1.0 0.0
11.75275423728253 1.0 0.0
11.95148305084111 1.0 0.0
12.15021186439983 1.0 0.0
12.34894067795883 1.0 0.0
12.54766949151722 1.0 0.0
12.74639830507616 1.0 0.0
12.94512711863486 1.0 0.0
13.14385593219357 1.0 0.0
13.34258474575207 1.0 0.0
13.54131355931069 1.0 0.0
13.7400423728695 1.0 0.0
13.93877118642822 1.0 0.0
14.13749999998697 1.0 0.0
14.33622881354686 1.0 0.0
14.53495762710678 1.0 0.0
14.73368644066656 1.0 0.0
14.93241525422655 1.0 0.0
15.13114406778625 1.0 0.0
15.32987288134641 1.0 0.0
15.52860169490635 1.0 0.0
15.7273305084661 1.0 0.0
15.9260593220261 1.0 0.0
16.12478813558534 1.0 0.0
16.32351694914468 1.0 0.0
16.52224576270527 1.0 0.0
16.72097457626511 1.0 0.0
16.91970338982543 1.0 0.0
17.11843220338561 1.0 0.0
17.31716101694539 1.0 0.0
17.51588983050497 1.0 0.0
17.71461864406449 1.0 0.0
17.91334745762401 1.0 0.0
18.11207627118383 1.0 0.0
18.31080508474307 1.0 0.0
18.50953389830311 1.0 0.0
18.70826271186271 1.0 0.0
18.90699152542239 1.0 0.0
19.10572033898203 1.0 0.0
19.30444915254171 1.0 0.0
19.50317796610107 1.0 0.0
19.70190677966065 1.0 0.0
19.90063559322003 1.0 0.0
20.0 0.7999999999999998 0.0
20.0 0.6000000000013869 0.0
20.0 0.4000000000016644 0.0
20.0 0.2000000000008322 0.0
20.0 0.9000000000000369 0.0
20.0 0.7000000000005904 0.0
20.0 0.5000000000017577 0.0
20.0 0.3000000000012483 0.0
20.0 0.1000000000004161 0.0
19.8 0.0 0.0
19.6 0.0 0.0
19.4 0.0 0.0
19.2 0.0 0.0
19.0 0.0 0.0
18.8 0.0 0.0
18.6 0.0 0.0
18.4 0.0 0.0
18.2 0.0 0.0
18.0 0.0 0.0
17.8 0.0 0.0
17.59999999999999 0.0 0.0
17.4 0.0 0.0
17.2 0.0 0.0
16.99999999999999 0.0 0.0
16.79999999999999 0.0 0.0
16.59999999999999 0.0 0.0
16.4 0.0 0.0
16.2 0.0 0.0
15.99999999999999 0.0 0.0
15.79999999999999 0.0 0.0
15.59999999999999 0.0 0.0
15.4 0.0 0.0
15.2 0.0 0.0
15.0 0.0 0.0
14.79999999999999 0.0 0.0
14.59999999999999 0.0 0.0
14.4 0.0 0.0
14.2 0.0 0.0
13.99999999999999 0.0 0.0
13.8 0.0 0.0
13.59999999999999 0.0 0.0
13.4 0.0 0.0
13.2 0.0 0.0
13.0 0.0 0.0
12.79999999999999 0.0 0.0
12.6 0.0 0.0
12.4 0.0 0.0
12.2 0.0 0.0
11.99999999999999 0.0 0.0
11.8 0.0 0.0
11.6 0.0 0.0
11.4 0.0 0.0
11.2 0.0 0.0
11.0 0.0 0.0
10.8 0.0 0.0
10.6 0.0 0.0
10.4 0.0 0.0
10.2 0.0 0.0
9.999999999999998 0.0 0.0
9.799999999999995 0.0 0.0
9.599999999999998 0.0 0.0
9.399999999999997 0.0 0.0
9.199999999999998 0.0 0.0
8.999999999999996 0.0 0.0
8.799999999999997 0.0 0.0
8.599999999999996 0.0 0.0
8.399999999999999 0.0 0.0
8.199999999999996 0.0 0.0
7.999999999999998 0.0 0.0
7.799999999999997 0.0 0.0
7.599999999999998 0.0 0.0
7.399999999999999 0.0 0.0
7.199999999999998 0.0 0.0
6.999999999999995 0.0 0.0
6.799999999999995 0.0 0.0
6.599999999999998 0.0 0.0
6.399999999999997 0.0 0.0
6.199999999999996 0.0 0.0
5.999999999999998 0.0 0.0
5.799999999999999 0.0 0.0
5.599999999999996 0.0 0.0
5.399999999999995 0.0 0.0
5.199999999999996 0.0 0.0
4.999999999999998 0.0 0.0
4.799999999999997 0.0 0.0
4.599999999999998 0.0 0.0
4.399999999999999 0.0 0.0
4.199999999999999 0.0 0.0
3.999999999999996 0.0 0.0
3.799999999999997 0.0 0.0
3.599999999999998 0.0 0.0
3.399999999999999 0.0 0.0
3.199999999999999 0.0 0.0
3.0 0.0 0.0
2.800000000000001 0.0 0.0
2.599999999999998 0.0 0.0
2.399999999999999 0.0 0.0
2.199999999999996 0.0 0.0
1.999999999999996 0.0 0.0
1.800000000000001 0.0 0.0
1.599999999999998 0.0 0.0
1.399999999999999 0.0 0.0
1.200000000000003 0.0 0.0
1.0 0.0 0.0
0.7999999999999972 0.0 0.0
0.5999999999999979 0.0 0.0
0.3999999999999986 0.0 0.0
0.1999999999999993 0.0 0.0
19.90000000000022 0.0 0.0
19.69999999999997 0.0 0.0
19.49999999999987 0.0 0.0
19.30000000000005 0.0 0.0
19.09999999999999 0.0 0.0
18.89999999999987 0.0 0.0
18.7 0.0 0.0
18.49999999999999 0.0 0.0
18.30000000000001 0.0 0.0
18.09999999999987 0.0 0.0
17.90000000000013 0.0 0.0
17.7 0.0 0.0
17.49999999999987 0.0 0.0
17.30000000000025 0.0 0.0
17.10000000000001 0.0 0.0
16.90000000000005 0.0 0.0
16.70000000000003 0.0 0.0
16.50000000000006 0.0 0.0
16.29999999999997 0.0 0.0
16.09999999999999 0.0 0.0
15.89999999999987 0.0 0.0
15.69999999999999 0.0 0.0
15.49999999999999 0.0 0.0
15.3 0.0 0.0
15.10000000000003 0.0 0.0
14.90000000000005 0.0 0.0
14.69999999999992 0.0 0.0
14.49999999999996 0.0 0.0
14.29999999999999 0.0 0.0
14.10000000000008 0.0 0.0
13.89999999999988 0.0 0.0
13.70000000000003 0.0 0.0
13.50000000000004 0.0 0.0
13.29999999999992 0.0 0.0
13.09999999999995 0.0 0.0
12.90000000000016 0.0 0.0
12.7 0.0 0.0
12.49999999999986 0.0 0.0
12.30000000000003 0.0 0.0
12.10000000000016 0.0 0.0
11.90000000000005 0.0 0.0
11.69999999999994 0.0 0.0
11.49999999999993 0.0 0.0
11.30000000000005 0.0 0.0
11.0999999999999 0.0 0.0
10.90000000000004 0.0 0.0
10.69999999999995 0.0 0.0
10.50000000000012 0.0 0.0
10.29999999999999 0.0 0.0
10.09999999999993 0.0 0.0
9.900000000000077 0.0 0.0
9.699999999999969 0.0 0.0
9.499999999999982 0.0 0.0
9.299999999999969 0.0 0.0
9.100000000000108 0.0 0.0
8.899999999999972 0.0 0.0
8.699999999999958 0.0 0.0
8.499999999999998 0.0 0.0
8.30000000000003 0.0 0.0
8.099999999999977 0.0 0.0
7.899999999999974 0.0 0.0
7.700000000000166 0.0 0.0
7.499999999999854 0.0 0.0
7.299999999999997 0.0 0.0
7.100000000000019 0.0 0.0
6.900000000000002 0.0 0.0
6.699999999999974 0.0 0.0
6.500000000000037 0.0 0.0
6.299999999999981 0.0 0.0
6.100000000000014 0.0 0.0
5.899999999999949 0.0 0.0
5.700000000000049 0.0 0.0
5.499999999999956 0.0 0.0
5.300000000000118 0.0 0.0
5.100000000000005 0.0 0.0
4.900000000000109 0.0 0.0
4.699999999999982 0.0 0.0
4.499999999999936 0.0 0.0
4.300000000000137 0.0 0.0
4.100000000000012 0.0 0.0
3.899999999999888 0.0 0.0
3.69999999999974 0.0 0.0
3.500000000000046 0.0 0.0
3.299999999999965 0.0 0.0
3.099999999999817 0.0 0.0
2.900000000000066 0.0 0.0
2.699999999999793 0.0 0.0
2.500000000000064 0.0 0.0
2.299999999999823 0.0 0.0
[...]
POINT_DATA 2790
VECTORS vector double
1.0 0.0 0.0
0.0 0.0 0.0
0.0 0.0 0.0
0.0 0.0 0.0
1.59514720757 0.0 0.0
1.0 0.0 0.0
0.0 0.0 0.0
0.0 0.0 0.0
0.0 0.0 0.0
0.0 0.0 0.0
0.0 0.0 0.0
0.0 0.0 0.0
0.0 0.0 0.0
0.0 0.0 0.0
0.0 0.0 0.0
0.0 0.0 0.0
0.0 0.0 0.0
0.0 0.0 0.0
0.0 0.0 0.0
0.0 0.0 0.0
0.0 0.0 0.0
0.0 0.0 0.0
0.0 0.0 0.0
0.0 0.0 0.0
0.0 0.0 0.0
0.0 0.0 0.0
0.0 0.0 0.0
0.0 0.0 0.0
0.0 0.0 0.0
0.0 0.0 0.0
0.0 0.0 0.0
0.0 0.0 0.0
0.0 0.0 0.0
0.0 0.0 0.0
0.0 0.0 0.0
0.0 0.0 0.0
0.0 0.0 0.0
0.0 0.0 0.0
0.0 0.0 0.0
0.0 0.0 0.0
0.0 0.0 0.0
0.0 0.0 0.0
0.0 0.0 0.0
0.0 0.0 0.0
0.0 0.0 0.0
0.0 0.0 0.0
0.0 0.0 0.0
0.0 0.0 0.0
0.0 0.0 0.0
0.0 0.0 0.0
0.0 0.0 0.0
0.0 0.0 0.0
0.0 0.0 0.0
0.0 0.0 0.0
0.0 0.0 0.0
0.0 0.0 0.0
0.0 0.0 0.0
0.0 0.0 0.0
0.0 0.0 0.0
0.0 0.0 0.0
0.0 0.0 0.0
0.0 0.0 0.0
0.0 0.0 0.0
0.0 0.0 0.0
0.0 0.0 0.0
0.0 0.0 0.0
0.0 0.0 0.0
0.0 0.0 0.0
0.0 0.0 0.0
0.0 0.0 0.0
0.0 0.0 0.0
0.0 0.0 0.0
0.0 0.0 0.0
0.0 0.0 0.0
0.0 0.0 0.0
0.0 0.0 0.0
0.0 0.0 0.0
0.0 0.0 0.0
0.0 0.0 0.0
0.0 0.0 0.0
0.0 0.0 0.0
0.0 0.0 0.0
0.0 0.0 0.0
0.0 0.0 0.0
0.0 0.0 0.0
0.0 0.0 0.0
0.0 0.0 0.0
0.0 0.0 0.0
0.0 0.0 0.0
0.0 0.0 0.0
0.0 0.0 0.0
0.0 0.0 0.0
0.0 0.0 0.0
0.0 0.0 0.0
0.0 0.0 0.0
0.0 0.0 0.0
0.0 0.0 0.0
0.0 0.0 0.0
0.0 0.0 0.0
0.0 0.0 0.0
0.0 0.0 0.0
0.0 0.0 0.0
0.0 0.0 0.0
0.0 0.0 0.0
0.0 0.0 0.0
0.0 0.0 0.0
0.0 0.0 0.0
0.0 0.0 0.0
0.0 0.0 0.0
0.0 0.0 0.0
0.0 0.0 0.0
0.0 0.0 0.0
0.0 0.0 0.0
0.0 0.0 0.0
0.0 0.0 0.0
0.0 0.0 0.0
0.0 0.0 0.0
0.0 0.0 0.0
0.0 0.0 0.0
0.0 0.0 0.0
0.0 0.0 0.0
0.0 0.0 0.0
0.0 0.0 0.0
0.0 0.0 0.0
0.0 0.0 0.0
0.0 0.0 0.0
0.0 0.0 0.0
0.0 0.0 0.0
0.0 0.0 0.0
0.0 0.0 0.0
0.0 0.0 0.0
0.0 0.0 0.0
0.0 0.0 0.0
0.0 0.0 0.0
0.0 0.0 0.0
0.0 0.0 0.0
0.0 0.0 0.0
0.0 0.0 0.0
0.0 0.0 0.0
0.0 0.0 0.0
0.0 0.0 0.0
0.0 0.0 0.0
0.0 0.0 0.0
0.0 0.0 0.0
0.0 0.0 0.0
0.0 0.0 0.0
0.0 0.0 0.0
0.0 0.0 0.0
0.0 0.0 0.0
0.0 0.0 0.0
0.0 0.0 0.0
0.0 0.0 0.0
0.0 0.0 0.0
0.0 0.0 0.0
0.0 0.0 0.0
0.0 0.0 0.0
0.0 0.0 0.0
0.0 0.0 0.0
0.0 0.0 0.0
0.0 0.0 0.0
0.0 0.0 0.0
0.0 0.0 0.0
0.0 0.0 0.0
0.0 0.0 0.0
0.0 0.0 0.0
0.0 0.0 0.0
0.0 0.0 0.0
0.0 0.0 0.0
0.0 0.0 0.0
0.0 0.0 0.0
0.0 0.0 0.0
0.0 0.0 0.0
0.0 0.0 0.0
0.0 0.0 0.0
0.0 0.0 0.0
0.0 0.0 0.0
0.0 0.0 0.0
0.0 0.0 0.0
0.0 0.0 0.0
0.0 0.0 0.0
0.0 0.0 0.0
0.0 0.0 0.0
0.0 0.0 0.0
0.0 0.0 0.0
0.0 0.0 0.0
0.0 0.0 0.0
0.0 0.0 0.0
0.0 0.0 0.0
0.0 0.0 0.0
0.0 0.0 0.0
0.0 0.0 0.0
0.0 0.0 0.0
0.0 0.0 0.0
0.0 0.0 0.0
0.0 0.0 0.0
0.0 0.0 0.0
0.0 0.0 0.0
0.0 0.0 0.0
0.0 0.0 0.0
0.0 0.0 0.0
0.0 0.0 0.0
0.0 0.0 0.0
0.0 0.0 0.0
0.0 0.0 0.0
0.0 0.0 0.0
0.540465675646 -0.000175899921519 0.0
0.954912627402 0.000266296677236 0.0
1.24963417737 0.000187719025135 0.0
1.44847553261 -0.000130811522649 0.0
0.276176602125 0.000196466887906 0.0
0.752288894194 0.0010630802047 0.0
1.10634705314 0.000233414215519 0.0
1.35087540871 -0.000584846183185 0.0
1.52043261801 -0.000195723763235 0.0
1.59470566736 0.0 0.0
1.59468190476 0.0 0.0
1.59423118921 0.0 0.0
1.59363498414 0.0 0.0
1.59192853932 0.0 0.0
1.59142053419 0.0 0.0
1.59009246448 0.0 0.0
1.58782099671 0.0 0.0
1.58657543335 0.0 0.0
1.58484501844 0.0 0.0
1.58243603683 0.0 0.0
1.58110784979 0.0 0.0
1.57917215148 0.0 0.0
1.57643878569 0.0 0.0
1.57356072105 0.0 0.0
1.57130513678 0.0 0.0
1.56985911974 0.0 0.0
1.56683000306 0.0 0.0
1.56430513287 0.0 0.0
1.56264710224 0.0 0.0
1.55935764516 0.0 0.0
1.55657554911 0.0 0.0
1.55468963551 0.0 0.0
1.55111111348 0.0 0.0
1.54803607477 0.0 0.0
1.54590000602 0.0 0.0
1.54201908345 0.0 0.0
1.53864304512 0.0 0.0
1.53625189367 0.0 0.0
1.5320646814 0.0 0.0
1.52838948539 0.0 0.0
1.52574816357 0.0 0.0
1.52126500108 0.0 0.0
1.517304495 0.0 0.0
1.51442476578 0.0 0.0
1.50964762643 0.0 0.0
1.50544391399 0.0 0.0
1.50237736856 0.0 0.0
1.49698694425 0.0 0.0
1.49236807339 0.0 0.0
1.48907943407 0.0 0.0
1.48393407949 0.0 0.0
1.47915693822 0.0 0.0
1.47569020505 0.0 0.0
1.47033283797 0.0 0.0
1.46536946734 0.0 0.0
1.46171999333 0.0 0.0
1.45614342599 0.0 0.0
1.45103996334 0.0 0.0
1.44725610552 0.0 0.0
1.44144242602 0.0 0.0
1.43610120649 0.0 0.0
1.43218402794 0.0 0.0
1.42910503733 0.0 0.0
1.422432413 0.0 0.0
1.41581009904 0.0 0.0
1.41013083215 0.0 0.0
1.40524898615 0.0 0.0
1.39906371116 0.0 0.0
1.39328179441 0.0 0.0
1.38881004191 0.0 0.0
1.38230863503 0.0 0.0
1.37612946908 0.0 0.0
1.37139149318 0.0 0.0
1.36457203635 0.0 0.0
1.35810563339 0.0 0.0
1.35312636594 0.0 0.0
1.34601552088 0.0 0.0
1.33927809467 0.0 0.0
1.33377379696 0.0 0.0
1.32874075906 0.0 0.0
1.32031625611 0.0 0.0
1.31340925687 0.0 0.0
1.30572214486 0.0 0.0
1.29724000872 0.0 0.0
1.29016088994 0.0 0.0
1.28093404845 0.0 0.0
1.272090829 0.0 0.0
1.26402659016 0.0 0.0
1.25608941353 0.0 0.0
1.24685617068 0.0 0.0
1.238138872 0.0 0.0
1.22933466522 0.0 0.0
1.21960377839 0.0 0.0
1.21000528397 0.0 0.0
1.20014840719 0.0 0.0
1.18969021473 0.0 0.0
1.1790015322 0.0 0.0
1.16778293524 0.0 0.0
1.15618727905 0.0 0.0
1.14384135201 0.0 0.0
1.13049200044 0.0 0.0
1.11631510058 0.0 0.0
1.10049976072 0.0 0.0
1.08270338364 0.0 0.0
1.06283469415 0.0 0.0
1.04146855673 0.0 0.0
1.01972667201 0.0 0.0
1.00310672915 0.0 0.0
1.59430624693 0.0 0.0
1.59375968694 0.0 0.0
1.59462306767 0.0 0.0
1.59276566028 0.0 0.0
1.59171769795 0.0 0.0
1.59092687289 0.0 0.0
1.59105180414 0.0 0.0
1.58804916567 0.0 0.0
1.58624662634 0.0 0.0
1.58591805353 0.0 0.0
1.58269324165 0.0 0.0
1.58080393573 0.0 0.0
1.58034451172 0.0 0.0
1.57687493227 0.0 0.0
1.57469144963 0.0 0.0
1.57150537718 0.0 0.0
1.57039647087 0.0 0.0
1.56808803317 0.0 0.0
1.56457784103 0.0 0.0
1.56327610437 0.0 0.0
1.56072607463 0.0 0.0
1.55695644344 0.0 0.0
1.55543581524 0.0 0.0
1.55261352118 0.0 0.0
1.54853786638 0.0 0.0
1.54677198295 0.0 0.0
1.54366349316 0.0 0.0
1.53926743175 0.0 0.0
1.53725235116 0.0 0.0
1.53385393176 0.0 0.0
1.52913612008 0.0 0.0
1.5268747543 0.0 0.0
1.52319663295 0.0 0.0
1.51816767639 0.0 0.0
1.51567940614 0.0 0.0
1.51173705734 0.0 0.0
1.50646242869 0.0 0.0
1.50369413721 0.0 0.0
1.49937395495 0.0 0.0
1.49360046311 0.0 0.0
1.49015745222 0.0 0.0
1.48639577744 0.0 0.0
1.48048637485 0.0 0.0
1.47686260668 0.0 0.0
1.47289951348 0.0 0.0
1.46678856457 0.0 0.0
1.46299156022 0.0 0.0
1.45882399021 0.0 0.0
1.45249344368 0.0 0.0
1.44860181171 0.0 0.0
1.44428403407 0.0 0.0
1.43769692823 0.0 0.0
1.43364317944 0.0 0.0
1.42926215085 0.0 0.0
1.42475344772 0.0 0.0
1.41870222115 0.0 0.0
1.41194719089 0.0 0.0
1.40723731039 0.0 0.0
1.40209632864 0.0 0.0
1.39528924868 0.0 0.0
1.39056920141 0.0 0.0
1.38553503896 0.0 0.0
1.37818855984 0.0 0.0
1.37325416414 0.0 0.0
1.36793516185 0.0 0.0
1.36033337306 0.0 0.0
1.35511181323 0.0 0.0
1.34951549172 0.0 0.0
1.34173719049 0.0 0.0
1.33614644938 0.0 0.0
1.33002785062 0.0 0.0
1.32359668415 0.0 0.0
1.31621224258 0.0 0.0
1.30890979789 0.0 0.0
1.30090741355 0.0 0.0
1.29310337759 0.0 0.0
1.28425660989 0.0 0.0
1.27608172342 0.0 0.0
1.26755441207 0.0 0.0
1.25993683314 0.0 0.0
1.2509602293 0.0 0.0
1.24206849736 0.0 0.0
1.23358635207 0.0 0.0
1.22407854914 0.0 0.0
1.21453614351 0.0 0.0
1.20491846715 0.0 0.0
1.19466708648 0.0 0.0
1.18426961949 0.0 0.0
1.17324539371 0.0 0.0
1.16191653254 0.0 0.0
1.15011996566 0.0 0.0
1.1370685317 0.0 0.0
1.12349434597 0.0 0.0
1.10868058326 0.0 0.0
1.09154438061 0.0 0.0
1.07278794348 0.0 0.0
1.05242454848 0.0 0.0
1.03039486881 0.0 0.0
1.01044647465 0.0 0.0
0.999112766889 0.0 0.0
1.0 0.0 0.0
1.0 0.0 0.0
1.0 0.0 0.0
1.0 0.0 0.0
1.0 0.0 0.0
1.0 0.0 0.0
1.0 0.0 0.0
1.0 0.0 0.0
1.0 0.0 0.0
1.17365245879 -0.0695285037507 0.0
1.22518224642 -0.0450571257882 0.0
1.2244913263 -0.0307786312386 0.0
1.06369326441 -0.000148449111786 0.0
1.10245710635 -0.000687184895195 0.0
1.1027047884 -0.00101223763573 0.0
1.10132615486 -0.00118209428818 0.0
1.10101453686 -0.00135663645077 0.0
1.10287410769 -0.00152531918849 0.0
1.10470269323 -0.00166445358698 0.0
1.10679780044 -0.00184271506393 0.0
1.10918831267 -0.00204036185335 0.0
1.11188746447 -0.00226057955794 0.0
1.11488927075 -0.00249304434945 0.0
1.11818277363 -0.00270550350551 0.0
1.07244570872 -0.00265103249666 0.0
1.07671520851 -0.00279210780889 0.0
1.08131135122 -0.00298335095632 0.0
1.08614383389 -0.00317807626831 0.0
1.14474876517 -0.00441915384425 0.0
1.21369459745 -0.0227266964448 0.0
1.11438684961 -0.00441576016661 0.0
1.09128095979 -0.00332786897665 0.0
1.19812579287 -0.0173819506336 0.0
1.1220522091 -0.00493428656355 0.0
1.13482903391 -0.00393738226492 0.0
1.18306679976 -0.0137113476486 0.0
1.13079869877 -0.0053893833982 0.0
1.16935212543 -0.0111494386923 0.0
1.17068968612 -0.0066953803623 0.0
1.18290785754 -0.0104755190464 0.0
1.1417648751 -0.00440642890253 0.0
1.15810149215 -0.00983627219279 0.0
0.854010579782 -0.000542349648961 0.0
1.22097813074 -0.164730003321 0.0
1.29105760436 -0.0109268456053 0.0
1.2801056046 -0.0128683209748 0.0
1.30718060871 -0.00739367223223 0.0
1.26691965136 -0.0152332618875 0.0
1.30721684685 -0.00660590764144 0.0
1.21992393596 -0.0219295409939 0.0
1.24780745502 -0.0181921121154 0.0
1.30894880677 -0.00607336856303 0.0
1.31006207425 -0.00549294016842 0.0
1.31191751256 -0.00480341502675 0.0
1.31251009493 -0.00445733227708 0.0
1.31281486623 -0.00428685997467 0.0
1.3130593724 -0.00402669363611 0.0
1.31316683949 -0.00378001621916 0.0
1.30370246435 -0.00357682849891 0.0
1.30346792723 -0.00330128078424 0.0
1.30326052166 -0.00301794326201 0.0
1.1973573073 -0.0525713317951 0.0
1.30290676976 -0.00274701378833 0.0
1.30257391731 -0.00248766600944 0.0
1.30228857895 -0.00224911348467 0.0
1.17969191489 -0.0271695881004 0.0
1.30206913313 -0.00203848705829 0.0
1.1214147589 -0.0275650746636 0.0
1.1324575703 -0.035934912307 0.0
1.30002946326 -0.00180198192235 0.0
1.29993276228 -0.00171750814754 0.0
0.81088232462 -0.00024653886061 0.0
1.29940714649 -0.00140591413972 0.0
0.811514125013 -0.000755012322655 0.0
0.951390355961 -0.00687435531965 0.0
0.971410332818 -0.00815809815101 0.0
0.910071523498 -0.00295095181024 0.0
1.06719075238 -0.0186255486281 0.0
0.995693534361 -0.0104294463666 0.0
0.897975536515 -0.00334713164958 0.0
1.02666321216 -0.0138123030467 0.0
0.8877238621 -0.00310365319253 0.0
0.878364253969 -0.0026268334858 0.0
0.870535930824 -0.00207710936995 0.0
0.863981780695 -0.00233755675552 0.0
0.857668627368 -0.00218982743306 0.0
0.851685579112 -0.00204584553987 0.0
0.846085069194 -0.00191533229322 0.0
0.841005421957 -0.00171381171322 0.0
0.83622882497 -0.00161972679934 0.0
0.831957698404 -0.00144907355701 0.0
0.828064448426 -0.00131107897627 0.0
0.824559456955 -0.00118893977179 0.0
0.821410053106 -0.001082702909 0.0
1.30349307516 -0.00121961051289 0.0
0.818575524808 -0.000993903869468 0.0
0.815993108151 -0.000899420175675 0.0
0.813760488908 -0.000791450964663 0.0
0.811873089264 -0.000630446109038 0.0
1.32095057307 -0.000640801620082 0.0
1.03679078794 -0.0403803793909 0.0
1.32632644402 0.000460807917442 0.0
1.31206600239 -0.00512180909226 0.0
1.30990252046 -0.00856883994783 0.0
1.30193218161 -0.00986443987245 0.0
1.32426873653 -0.00540840653441 0.0
0.814293428453 -0.00329351210341 0.0
0.855009846379 -0.00214608202287 0.0
0.870246782382 -0.00333801519333 0.0
0.879964786729 -0.00740848722552 0.0
1.15747589534 -0.0670082486481 0.0
1.00917381604 -0.0249877673056 0.0
1.32845083243 -0.000638273099412 0.0
1.37946454034 -0.00338720969445 0.0
1.37623193612 -0.00365492508546 0.0
1.14031625644 -0.0217469610974 0.0
1.3686442997 -0.00342991748198 0.0
1.07645138112 -0.0291267280202 0.0
1.37259494409 -0.00386064293527 0.0
1.37060303448 -0.00316249169206 0.0
1.37226727088 -0.00289552787558 0.0
1.36385559523 -0.00411219122748 0.0
0.919660657875 -0.0143394798394 0.0
1.37375591321 -0.00263250992371 0.0
1.36026857586 -0.00430701157625 0.0
1.37510427608 -0.00238367935603 0.0
1.37634851385 -0.00215260628964 0.0
1.18668728385 -0.0175138973734 0.0
1.37752933375 -0.00193927446365 0.0
1.36811690785 -0.00175961584563 0.0
1.41910924948 -0.00152869930594 0.0
0.584666438539 9.33823827745e-05 0.0
1.35077885631 -0.00490452661686 0.0
1.41664392951 -0.00139254394673 0.0
0.600393770359 -7.67506620687e-05 0.0
0.560333556226 0.000171847783122 0.0
1.4172389732 -0.00109257892111 0.0
0.585336671675 -3.41796813547e-05 0.0
1.34687449435 -0.00528217930765 0.0
1.22270319131 -0.0150285305442 0.0
0.586819341237 -8.02966515415e-05 0.0
0.588710250328 -0.000102923791149 0.0
0.590836394437 -0.000121182636529 0.0
0.593208434217 -0.000159870689707 0.0
1.34070576936 -0.00573065902869 0.0
1.25185066984 -0.013017253253 0.0
0.595865462762 -0.00020339226563 0.0
0.59884986655 -0.000255581136141 0.0
0.602199888543 -0.000321723436891 0.0
0.605860565651 -0.000366091197317 0.0
0.610557834913 -0.000542057357164 0.0
1.33278585859 -0.00619613597925 0.0
1.27464040117 -0.0112445822502 0.0
0.615003592512 -0.000569802494964 0.0
0.619835266802 -0.000625189538392 0.0
0.488593284074 -0.000440872235748 0.0
0.625038128667 -0.000702132858896 0.0
0.80664066732 -0.00752893018597 0.0
0.648816137878 -0.000810397835072 0.0
0.768877253638 -0.00529901705909 0.0
0.656770696858 -0.000986793473154 0.0
0.630288585713 -0.000692771355923 0.0
0.740978261249 -0.00393396454096 0.0
0.665053894217 -0.000808842516171 0.0
0.719340379825 -0.003016917763 0.0
0.509734545197 0.00038045339563 0.0
0.59587464173 -0.00201678264585 0.0
0.53186074679 -0.000148375326543 0.0
1.32424953215 -0.00648432010995 0.0
1.29282673302 -0.00993803636942 0.0
1.30555879103 -0.0091366917304 0.0
1.32839236963 -0.00711998197901 0.0
1.35423007565 -0.00473424553978 0.0
1.36243890787 -0.00453659782656 0.0
0.617490257776 -0.00263370393271 0.0
0.831833735269 -0.00758192655389 0.0
1.42037643536 -0.000605754322819 0.0
1.03851055597 -0.0628124596648 0.0
1.09749438245 0.000439193983042 0.0
1.16701387674 -0.000325106452327 0.0
1.04355473551 -0.0203433199165 0.0
0.481606805043 -1.89524923182e-06 0.0
1.11392231788 -0.0779464616257 0.0
0.967983731099 -0.0478946186596 0.0
0.530111134569 -0.00120397860821 0.0
1.42438131748 -0.00290218015693 0.0
1.41966303302 -0.00314664530119 0.0
1.42789894625 -0.00260685800681 0.0
1.41369048956 -0.00332056419896 0.0
1.28456776152 -0.314168771042 0.0
1.40679716487 -0.00355070788408 0.0
1.43248844684 -0.00240100182196 0.0
1.40010672494 -0.00372712463164 0.0
1.43662632732 -0.00219852692329 0.0
1.4403767669 -0.0019943829723 0.0
1.19787285134 -0.0107994944743 0.0
1.3713803221 -0.00441625824968 0.0
1.11002847502 -0.0162300807921 0.0
1.36170462179 -0.00474281206109 0.0
1.23173161584 -0.00948439018959 0.0
1.44376224152 -0.00179793813602 0.0
1.35090807466 -0.00507936704102 0.0
1.2603041064 -0.00837764169744 0.0
1.15807932927 -0.0126110299461 0.0
1.28436005735 -0.00747430561573 0.0
1.44682522338 -0.00161559446995 0.0
1.44835803625 -0.00144689050798 0.0
1.4497569717 -0.001333401505 0.0
1.4487680472 -0.000997558647155 0.0
1.45221578366 -0.0009577645673 0.0
1.45486439128 -0.000712473823022 0.0
1.14624296869 -0.0043001770132 0.0
0.711335390028 -0.00831015516148 0.0
0.760845513222 -0.0134069936585 0.0
0.819213655691 -0.020777260563 0.0
0.681835024119 -0.00731266943311 0.0
0.453186181788 -0.000661444111556 0.0
0.454583224989 -0.000680451054441 0.0
0.456257626483 -0.000713395866269 0.0
1.19505761901 -0.00833679845447 0.0
0.458171944383 -0.00075471517389 0.0
0.460270482495 -0.000795463820677 0.0
0.462600173329 -0.000836883520685 0.0
1.10361263705 -0.000780750371696 0.0
1.20014500831 -0.0106764315332 0.0
0.46519115203 -0.000884348494078 0.0
1.1025782453 -0.000381801379636 0.0
0.468082382886 -0.000936702639321 0.0
0.47131560912 -0.00100127425821 0.0
0.474672650853 -0.000641718489289 0.0
0.478462820116 -0.000677716746037 0.0
1.09184353263 -0.00113150781949 0.0
0.482605725734 -0.00071664742189 0.0
1.093377745 -0.000917883133798 0.0
0.459045178595 -0.000385959178174 0.0
0.487045708805 -0.000771238779427 0.0
1.09494728691 -0.00114278110141 0.0
0.461002365781 -0.000242146919479 0.0
1.09715297444 -0.00127888984525 0.0
0.458615394375 -0.000931570286519 0.0
0.491793682441 -0.00091945254717 0.0
1.09915381785 -0.00143325342021 0.0
0.458856943801 -0.000509545662651 0.0
0.482109292451 -0.000304663982752 0.0
1.10142295391 -0.00161035478945 0.0
0.655751366636 -0.00687716623435 0.0
1.10397771066 -0.00180906522909 0.0
1.10685541495 -0.00202142589116 0.0
0.509440935046 -0.000727015433505 0.0
1.10991964005 -0.00224666022722 0.0
1.11055578344 -0.00256725074676 0.0
1.22518250768 -0.0262546508955 0.0
0.620906844917 -0.00448140301619 0.0
0.516081825814 -0.00118201134415 0.0
1.11215346416 -0.00260545796794 0.0
1.11629296874 -0.00278283187524 0.0
0.595824498448 -0.00344313508002 0.0
0.523247630064 -0.00126804691827 0.0
1.12067801862 -0.00296204942735 0.0
0.576840986445 -0.00272255023488 0.0
0.505564139051 -0.000552044991293 0.0
1.12524581759 -0.00313662344531 0.0
1.12780936147 -0.00325726409418 0.0
0.547683124253 -0.00198173012709 0.0
1.13965281337 -0.00474826031697 0.0
1.14645098099 -0.00414401040718 0.0
1.15328378729 -0.00459404849 0.0
1.21755818165 -0.0203736283559 0.0
1.16078726973 -0.00502923104678 0.0
1.20776035703 -0.0162489023121 0.0
1.16585817438 -0.00558833227201 0.0
1.19779957513 -0.0133151245495 0.0
1.18527560437 -0.0112490435071 0.0
1.22341093548 -0.0387988844922 0.0
1.20604522079 -0.0495930662817 0.0
1.19062169329 -0.0595960139914 0.0
1.18312495266 -0.00970096425985 0.0
1.2256087064 -0.0345663745849 0.0
1.22382973047 -0.026899344523 0.0
1.19337500099 -0.0118996967515 0.0
1.15703020533 -0.00692047996947 0.0
1.20474638034 -0.015090402152 0.0
1.14832953312 -0.00639197445636 0.0
1.21583483408 -0.0196135328082 0.0
1.14126232415 -0.00585277469737 0.0
0.572828334206 -0.00216591910986 0.0
1.14126839269 -0.00494362893516 0.0
0.591724304534 -0.00297245124273 0.0
0.53244035652 -0.00114586923593 0.0
0.65806333309 -0.00642568188648 0.0
1.1211821268 -0.00446998028151 0.0
0.612926451756 -0.003778042318 0.0
0.529748038962 -0.00140448504695 0.0
1.11687651327 -0.0044052610416 0.0
1.1123928968 -0.0041897434831 0.0
0.641276585308 -0.0049924311008 0.0
0.522810482443 -0.00131315178483 0.0
1.10816221125 -0.00393633711812 0.0
1.44813043372 -0.00142932365769 0.0
1.10413332312 -0.00369721933166 0.0
1.11408942938 -0.00318172758637 0.0
0.493459827002 -0.000209348394005 0.0
1.11136419463 -0.00295730467441 0.0
1.10846683321 -0.0027066050111 0.0
1.10580752492 -0.00247935391723 0.0
1.10345105087 -0.00227315292848 0.0
1.1013815765 -0.0020911459768 0.0
1.09957543976 -0.00193578537619 0.0
1.09744340635 -0.00185110216226 0.0
1.09501063038 -0.000921985895423 0.0
1.09635386586 -0.0012702347671 0.0
1.09547010998 -0.00126586633745 0.0
1.08973876008 -0.000751468006284 0.0
1.38022019869 -0.00411498965963 0.0
1.44969970105 -0.00157643225322 0.0
0.503381380432 -0.00112449347583 0.0
0.493850127042 -0.00113844835886 0.0
0.489158670313 -0.00107204171143 0.0
0.484806839215 -0.00101489612634 0.0
0.480762039228 -0.000954896462097 0.0
1.44807119018 -0.00161757903882 0.0
0.477195739646 -0.000574084729676 0.0
0.473824242136 -0.000601491611591 0.0
0.470698044037 -0.0005217407026 0.0
0.467906862577 -0.000474353672441 0.0
0.465406237843 -0.000434380069131 0.0
0.463156955558 -0.000399329835552 0.0
1.44684176651 -0.0018102806883 0.0
0.461127891398 -0.000380350466014 0.0
0.459278483165 -0.00034525724985 0.0
0.45769637723 -0.000314583554039 0.0
0.459654595429 -2.08531379439e-05 0.0
1.4438340558 -0.00199175896062 0.0
1.44054068718 -0.00218851012691 0.0
1.31183790874 -0.00750324777075 0.0
1.43691671089 -0.00239745703493 0.0
1.33247822434 -0.00529952372329 0.0
0.856456754993 -0.000162487771591 0.0
1.43292013291 -0.00261121495764 0.0
1.00579262451 -0.0124215923789 0.0
1.08580220501 -0.0197252475381 0.0
1.44965250438 -0.00126432406963 0.0
1.42850045229 -0.00281997999423 0.0
1.22700230208 -0.0907880034285 0.0
1.42387978251 -0.0029869302618 0.0
1.43426098756 -0.00251473788046 0.0
1.38575560883 -0.003581570487 0.0
1.42727675493 -0.00265992486572 0.0
1.4197485032 -0.00280889686106 0.0
1.44857058626 0.000123856309304 0.0
1.41135538258 -0.00291025216104 0.0
1.40317506801 -0.00291096052144 0.0
1.13625181611 -0.0117852034501 0.0
1.17833742894 -0.00971091423199 0.0
1.37862320224 -0.00344161338193 0.0
1.34430228816 -0.00406983537139 0.0
1.29331904368 -0.00612780641152 0.0
1.36834014885 -0.00372487571712 0.0
1.21406874004 -0.0085384905196 0.0
1.28613678209 -0.00212867704523 0.0