# vtk DataFile Version 2.0
2D Simulation Python
ASCII
DATASET UNSTRUCTURED_GRID
FIELD FieldData 1
NODES 1 2 int
2790 1289

POINTS 2790 double
0.0 1.0 0.0
1.725 1.0 0.0
8.275 1.0 0.0
20.0 1.0 0.0
20.0 0.0 0.0
0.0 0.0 0.0
0.1916666666663293 1.0 0.0
0.3833333333324708 1.0 0.0
0.574999999998553 1.0 0.0
0.7666666666645966 1.0 0.0
0.9583333333312576 1.0 0.0
1.149999999998384 1.0 0.0
1.341666666665662 1.0 0.0
1.533333333332819 1.0 0.0
0.0958333333331406 1.0 0.0
0.2874999999994247 1.0 0.0
0.4791666666655395 1.0 0.0
0.6708333333315728 1.0 0.0
0.8624999999976626 1.0 0.0
1.054166666664886 1.0 0.0
1.245833333332057 1.0 0.0
1.437499999999343 1.0 0.0
1.629166666666455 1.0 0.0
1.92348484848444 1.0 0.0
2.121969696968978 1.0 0.0
2.320454545453434 1.0 0.0
2.518939393937826 1.0 0.0
2.717424242422235 1.0 0.0
2.915909090906411 1.0 0.0
3.1143939393908 1.0 0.0
3.312878787875129 1.0 0.0
3.511363636359531 1.0 0.0
3.709848484843827 1.0 0.0
3.90833333332816 1.0 0.0
4.106818181812215 1.0 0.0
4.305303030296804 1.0 0.0
4.503787878781365 1.0 0.0
4.702272727265711 1.0 0.0
4.900757575750005 1.0 0.0
5.099242424235156 1.0 0.0
5.297727272720327 1.0 0.0
5.496212121205663 1.0 0.0
5.694696969690998 1.0 0.0
5.89318181817668 1.0 0.0
6.09166666666213 1.0 0.0
6.290151515147423 1.0 0.0
6.488636363633031 1.0 0.0
6.687121212118713 1.0 0.0
6.885606060604342 1.0 0.0
7.084090909089381 1.0 0.0
7.282575757574369 1.0 0.0
7.481060606059355 1.0 0.0
7.679545454544343 1.0 0.0
7.878030303029329 1.0 0.0
8.076515151514705 1.0 0.0
1.824242424242199 1.0 0.0
2.022727272726695 1.0 0.0
2.221212121211181 1.0 0.0
2.41969696969563 1.0 0.0
2.618181818180092 1.0 0.0
2.816666666664316 1.0 0.0
3.015151515148624 1.0 0.0
3.213636363633039 1.0 0.0
3.412121212117267 1.0 0.0
3.610606060601583 1.0 0.0
3.809090909085975 1.0 0.0
4.007575757570153 1.0 0.0
4.206060606054539 1.0 0.0
4.404545454539001 1.0 0.0
4.603030303023853 1.0 0.0
4.801515151507715 1.0 0.0
4.999999999992074 1.0 0.0
5.198484848477777 1.0 0.0
5.396969696963081 1.0 0.0
5.595454545448261 1.0 0.0
5.793939393933949 1.0 0.0
5.992424242419331 1.0 0.0
6.190909090904785 1.0 0.0
6.389393939390224 1.0 0.0
6.587878787875795 1.0 0.0
6.786363636361617 1.0 0.0
6.984848484846598 1.0 0.0
7.183333333331875 1.0 0.0
7.381818181816625 1.0 0.0
7.580303030301849 1.0 0.0
7.778787878786936 1.0 0.0
7.977272727272114 1.0 0.0
8.175757575757618 1.0 0.0
8.473728813558951 1.0 0.0
8.672457627118133 1.0 0.0
8.871186440676855 1.0 0.0
9.069915254236154 1.0 0.0
9.268644067794812 1.0 0.0
9.467372881354057 1.0 0.0
9.666101694912944 1.0 0.0
9.864830508471961 1.0 0.0
10.06355932203108 1.0 0.0
10.26228813558986 1.0 0.0
10.46101694914916 1.0 0.0
10.65974576270777 1.0 0.0
10.85847457626706 1.0 0.0
11.05720338982589 1.0 0.0
11.25593220338497 1.0 0.0
11.45466101694402 1.0 0.0
11.65338983050287 1.0 0.0
11.85211864406215 1.0 0.0
12.05084745762035 1.0 0.0
12.24957627117938 1.0 0.0
12.44830508473794 1.0 0.0
12.64703389829659 1.0 0.0
12.84576271185557 1.0 0.0
13.04449152541379 1.0 0.0
13.24322033897301 1.0 0.0
13.44194915253121 1.0 0.0
13.6406779660903 1.0 0.0
13.83940677964874 1.0 0.0
14.03813559320751 1.0 0.0
14.23686440676681 1.0 0.0
14.43559322032663 1.0 0.0
14.63432203388679 1.0 0.0
14.8330508474463 1.0 0.0
15.0317796610067 1.0 0.0
15.23050847456608 1.0 0.0
15.42923728812645 1.0 0.0
15.62796610168606 1.0 0.0
15.82669491524602 1.0 0.0
16.02542372880584 1.0 0.0
16.22415254236431 1.0 0.0
16.42288135592496 1.0 0.0
16.62161016948498 1.0 0.0
16.82033898304518 1.0 0.0
17.01906779660567 1.0 0.0
17.2177966101654 1.0 0.0
17.41652542372565 1.0 0.0
17.61525423728425 1.0 0.0
17.81398305084494 1.0 0.0
18.01271186440355 1.0 0.0
18.21144067796387 1.0 0.0
18.41016949152309 1.0 0.0
18.6088983050827 1.0 0.0
18.80762711864282 1.0 0.0
19.00635593220153 1.0 0.0
19.20508474576211 1.0 0.0
19.40381355932072 1.0 0.0
19.60254237288117 1.0 0.0
19.80127118644013 1.0 0.0
8.374364406779554 1.0 0.0
8.573093220338519 1.0 0.0
8.771822033897509 1.0 0.0
8.970550847456504 1.0 0.0
9.169279661015429 1.0 0.0
9.368008474574502 1.0 0.0
9.566737288133496 1.0 0.0
9.765466101692677 1.0 0.0
9.964194915251602 1.0 0.0
10.16292372881015 1.0 0.0
10.36165254236967 1.0 0.0
10.56038135592849 1.0 0.0
10.75911016948728 1.0 0.0
10.95783898304648 1.0 0.0
11.15656779660554 1.0 0.0
11.35529661016447 1.0 0.0
11.55402542372345 1.0 0.0
11.75275423728253 1.0 0.0
11.95148305084111 1.0 0.0
12.15021186439983 1.0 0.0
12.34894067795883 1.0 0.0
12.54766949151722 1.0 0.0
12.74639830507616 1.0 0.0
12.94512711863486 1.0 0.0
13.14385593219357 1.0 0.0
13.34258474575207 1.0 0.0
13.54131355931069 1.0 0.0
13.7400423728695 1.0 0.0
13.93877118642822 1.0 0.0
14.13749999998697 1.0 0.0
14.33622881354686 1.0 0.0
14.53495762710678 1.0 0.0
14.73368644066656 1.0 0.0
14.93241525422655 1.0 0.0
15.13114406778625 1.0 0.0
15.32987288134641 1.0 0.0
15.52860169490635 1.0 0.0
15.7273305084661 1.0 0.0
15.9260593220261 1.0 0.0
16.12478813558534 1.0 0.0
16.32351694914468 1.0 0.0
16.52224576270527 1.0 0.0
16.72097457626511 1.0 0.0
16.91970338982543 1.0 0.0
17.11843220338561 1.0 0.0
17.31716101694539 1.0 0.0
17.51588983050497 1.0 0.0
17.71461864406449 1.0 0.0
17.91334745762401 1.0 0.0
18.11207627118383 1.0 0.0
18.31080508474307 1.0 0.0
18.50953389830311 1.0 0.0
18.70826271186271 1.0 0.0
18.90699152542239 1.0 0.0
19.10572033898203 1.0 0.0
19.30444915254171 1.0 0.0
19.50317796610107 1.0 0.0
19.70190677966065 1.0 0.0
19.90063559322003 1.0 0.0
20.0 0.7999999999999998 0.0
20.0 0.6000000000013869 0.0
20.0 0.4000000000016644 0.0
20.0 0.2000000000008322 0.0
20.0 0.9000000000000369 0.0
20.0 0.7000000000005904 0.0
20.0 0.5000000000017577 0.0
20.0 0.3000000000012483 0.0
20.0 0.1000000000004161 0.0
19.8 0.0 0.0
19.6 0.0 0.0
19.4 0.0 0.0
19.2 0.0 0.0
19.0 0.0 0.0
18.8 0.0 0.0
18.6 0.0 0.0
18.4 0.0 0.0
18.2 0.0 0.0
18.0 0.0 0.0
17.8 0.0 0.0
17.59999999999999 0.0 0.0
17.4 0.0 0.0
17.2 0.0 0.0
16.99999999999999 0.0 0.0
16.79999999999999 0.0 0.0
16.59999999999999 0.0 0.0
16.4 0.0 0.0
16.2 0.0 0.0
15.99999999999999 0.0 0.0
15.79999999999999 0.0 0.0
15.59999999999999 0.0 0.0
15.4 0.0 0.0
15.2 0.0 0.0
15.0 0.0 0.0
14.79999999999999 0.0 0.0
14.59999999999999 0.0 0.0
14.4 0.0 0.0
14.2 0.0 0.0
13.99999999999999 0.0 0.0
13.8 0.0 0.0
13.59999999999999 0.0 0.0
13.4 0.0 0.0
13.2 0.0 0.0
13.0 0.0 0.0
12.79999999999999 0.0 0.0
12.6 0.0 0.0
12.4 0.0 0.0
12.2 0.0 0.0
11.99999999999999 0.0 0.0
11.8 0.0 0.0
11.6 0.0 0.0
11.4 0.0 0.0
11.2 0.0 0.0
11.0 0.0 0.0
10.8 0.0 0.0
10.6 0.0 0.0
10.4 0.0 0.0
10.2 0.0 0.0
9.999999999999998 0.0 0.0
9.799999999999995 0.0 0.0
9.599999999999998 0.0 0.0
9.399999999999997 0.0 0.0
9.199999999999998 0.0 0.0
8.999999999999996 0.0 0.0
8.799999999999997 0.0 0.0
8.599999999999996 0.0 0.0
8.399999999999999 0.0 0.0
8.199999999999996 0.0 0.0
7.999999999999998 0.0 0.0
7.799999999999997 0.0 0.0
7.599999999999998 0.0 0.0
7.399999999999999 0.0 0.0
7.199999999999998 0.0 0.0
6.999999999999995 0.0 0.0
6.799999999999995 0.0 0.0
6.599999999999998 0.0 0.0
6.399999999999997 0.0 0.0
6.199999999999996 0.0 0.0
5.999999999999998 0.0 0.0
5.799999999999999 0.0 0.0
5.599999999999996 0.0 0.0
5.399999999999995 0.0 0.0
5.199999999999996 0.0 0.0
4.999999999999998 0.0 0.0
4.799999999999997 0.0 0.0
4.599999999999998 0.0 0.0
4.399999999999999 0.0 0.0
4.199999999999999 0.0 0.0
3.999999999999996 0.0 0.0
3.799999999999997 0.0 0.0
3.599999999999998 0.0 0.0
3.399999999999999 0.0 0.0
3.199999999999999 0.0 0.0
3.0 0.0 0.0
2.800000000000001 0.0 0.0
2.599999999999998 0.0 0.0
2.399999999999999 0.0 0.0
2.199999999999996 0.0 0.0
1.999999999999996 0.0 0.0
1.800000000000001 0.0 0.0
1.599999999999998 0.0 0.0
1.399999999999999 0.0 0.0
1.200000000000003 0.0 0.0
1.0 0.0 0.0
0.7999999999999972 0.0 0.0
0.5999999999999979 0.0 0.0
0.3999999999999986 0.0 0.0
0.1999999999999993 0.0 0.0
19.90000000000022 0.0 0.0
19.69999999999997 0.0 0.0
19.49999999999987 0.0 0.0
19.30000000000005 0.0 0.0
19.09999999999999 0.0 0.0
18.89999999999987 0.0 0.0
18.7 0.0 0.0
18.49999999999999 0.0 0.0
18.30000000000001 0.0 0.0
18.09999999999987 0.0 0.0
17.90000000000013 0.0 0.0
17.7 0.0 0.0
17.49999999999987 0.0 0.0
17.30000000000025 0.0 0.0
17.10000000000001 0.0 0.0
16.90000000000005 0.0 0.0
16.70000000000003 0.0 0.0
16.50000000000006 0.0 0.0
16.29999999999997 0.0 0.0
16.09999999999999 0.0 0.0
15.89999999999987 0.0 0.0
15.69999999999999 0.0 0.0
15.49999999999999 0.0 0.0
15.3 0.0 0.0
15.10000000000003 0.0 0.0
14.90000000000005 0.0 0.0
14.69999999999992 0.0 0.0
14.49999999999996 0.0 0.0
14.29999999999999 0.0 0.0
14.10000000000008 0.0 0.0
13.89999999999988 0.0 0.0
13.70000000000003 0.0 0.0
13.50000000000004 0.0 0.0
13.29999999999992 0.0 0.0
13.09999999999995 0.0 0.0
12.90000000000016 0.0 0.0
12.7 0.0 0.0
12.49999999999986 0.0 0.0
12.30000000000003 0.0 0.0
12.10000000000016 0.0 0.0
11.90000000000005 0.0 0.0
11.69999999999994 0.0 0.0
11.49999999999993 0.0 0.0
11.30000000000005 0.0 0.0
11.0999999999999 0.0 0.0
10.90000000000004 0.0 0.0
10.69999999999995 0.0 0.0
10.50000000000012 0.0 0.0
10.29999999999999 0.0 0.0
10.09999999999993 0.0 0.0
9.900000000000077 0.0 0.0
9.699999999999969 0.0 0.0
9.499999999999982 0.0 0.0
9.299999999999969 0.0 0.0
9.100000000000108 0.0 0.0
8.899999999999972 0.0 0.0
8.699999999999958 0.0 0.0
8.499999999999998 0.0 0.0
8.30000000000003 0.0 0.0
8.099999999999977 0.0 0.0
7.899999999999974 0.0 0.0
7.700000000000166 0.0 0.0
7.499999999999854 0.0 0.0
7.299999999999997 0.0 0.0
7.100000000000019 0.0 0.0
6.900000000000002 0.0 0.0
6.699999999999974 0.0 0.0
6.500000000000037 0.0 0.0
6.299999999999981 0.0 0.0
6.100000000000014 0.0 0.0
5.899999999999949 0.0 0.0
5.700000000000049 0.0 0.0
5.499999999999956 0.0 0.0
5.300000000000118 0.0 0.0
5.100000000000005 0.0 0.0
4.900000000000109 0.0 0.0
4.699999999999982 0.0 0.0
4.499999999999936 0.0 0.0
4.300000000000137 0.0 0.0
4.100000000000012 0.0 0.0
3.899999999999888 0.0 0.0
3.69999999999974 0.0 0.0
3.500000000000046 0.0 0.0
3.299999999999965 0.0 0.0
3.099999999999817 0.0 0.0
2.900000000000066 0.0 0.0
2.699999999999793 0.0 0.0
2.500000000000064 0.0 0.0
2.299999999999823 0.0 0.0
[...]
POINT_DATA 2790
VECTORS vector double
1.0 0.0 0.0
0.0 0.0 0.0
0.0 0.0 0.0
0.0 0.0 0.0
1.42521712627 0.0 0.0
1.0 0.0 0.0
0.0 0.0 0.0
0.0 0.0 0.0
0.0 0.0 0.0
0.0 0.0 0.0
0.0 0.0 0.0
0.0 0.0 0.0
0.0 0.0 0.0
0.0 0.0 0.0
0.0 0.0 0.0
0.0 0.0 0.0
0.0 0.0 0.0
0.0 0.0 0.0
0.0 0.0 0.0
0.0 0.0 0.0
0.0 0.0 0.0
0.0 0.0 0.0
0.0 0.0 0.0
0.0 0.0 0.0
0.0 0.0 0.0
0.0 0.0 0.0
0.0 0.0 0.0
0.0 0.0 0.0
0.0 0.0 0.0
0.0 0.0 0.0
0.0 0.0 0.0
0.0 0.0 0.0
0.0 0.0 0.0
0.0 0.0 0.0
0.0 0.0 0.0
0.0 0.0 0.0
0.0 0.0 0.0
0.0 0.0 0.0
0.0 0.0 0.0
0.0 0.0 0.0
0.0 0.0 0.0
0.0 0.0 0.0
0.0 0.0 0.0
0.0 0.0 0.0
0.0 0.0 0.0
0.0 0.0 0.0
0.0 0.0 0.0
0.0 0.0 0.0
0.0 0.0 0.0
0.0 0.0 0.0
0.0 0.0 0.0
0.0 0.0 0.0
0.0 0.0 0.0
0.0 0.0 0.0
0.0 0.0 0.0
0.0 0.0 0.0
0.0 0.0 0.0
0.0 0.0 0.0
0.0 0.0 0.0
0.0 0.0 0.0
0.0 0.0 0.0
0.0 0.0 0.0
0.0 0.0 0.0
0.0 0.0 0.0
0.0 0.0 0.0
0.0 0.0 0.0
0.0 0.0 0.0
0.0 0.0 0.0
0.0 0.0 0.0
0.0 0.0 0.0
0.0 0.0 0.0
0.0 0.0 0.0
0.0 0.0 0.0
0.0 0.0 0.0
0.0 0.0 0.0
0.0 0.0 0.0
0.0 0.0 0.0
0.0 0.0 0.0
0.0 0.0 0.0
0.0 0.0 0.0
0.0 0.0 0.0
0.0 0.0 0.0
0.0 0.0 0.0
0.0 0.0 0.0
0.0 0.0 0.0
0.0 0.0 0.0
0.0 0.0 0.0
0.0 0.0 0.0
0.0 0.0 0.0
0.0 0.0 0.0
0.0 0.0 0.0
0.0 0.0 0.0
0.0 0.0 0.0
0.0 0.0 0.0
0.0 0.0 0.0
0.0 0.0 0.0
0.0 0.0 0.0
0.0 0.0 0.0
0.0 0.0 0.0
0.0 0.0 0.0
0.0 0.0 0.0
0.0 0.0 0.0
0.0 0.0 0.0
0.0 0.0 0.0
0.0 0.0 0.0
0.0 0.0 0.0
0.0 0.0 0.0
0.0 0.0 0.0
0.0 0.0 0.0
0.0 0.0 0.0
0.0 0.0 0.0
0.0 0.0 0.0
0.0 0.0 0.0
0.0 0.0 0.0
0.0 0.0 0.0
0.0 0.0 0.0
0.0 0.0 0.0
0.0 0.0 0.0
0.0 0.0 0.0
0.0 0.0 0.0
0.0 0.0 0.0
0.0 0.0 0.0
0.0 0.0 0.0
0.0 0.0 0.0
0.0 0.0 0.0
0.0 0.0 0.0
0.0 0.0 0.0
0.0 0.0 0.0
0.0 0.0 0.0
0.0 0.0 0.0
0.0 0.0 0.0
0.0 0.0 0.0
0.0 0.0 0.0
0.0 0.0 0.0
0.0 0.0 0.0
0.0 0.0 0.0
0.0 0.0 0.0
0.0 0.0 0.0
0.0 0.0 0.0
0.0 0.0 0.0
0.0 0.0 0.0
0.0 0.0 0.0
0.0 0.0 0.0
0.0 0.0 0.0
0.0 0.0 0.0
0.0 0.0 0.0
0.0 0.0 0.0
0.0 0.0 0.0
0.0 0.0 0.0
0.0 0.0 0.0
0.0 0.0 0.0
0.0 0.0 0.0
0.0 0.0 0.0
0.0 0.0 0.0
0.0 0.0 0.0
0.0 0.0 0.0
0.0 0.0 0.0
0.0 0.0 0.0
0.0 0.0 0.0
0.0 0.0 0.0
0.0 0.0 0.0
0.0 0.0 0.0
0.0 0.0 0.0
0.0 0.0 0.0
0.0 0.0 0.0
0.0 0.0 0.0
0.0 0.0 0.0
0.0 0.0 0.0
0.0 0.0 0.0
0.0 0.0 0.0
0.0 0.0 0.0
0.0 0.0 0.0
0.0 0.0 0.0
0.0 0.0 0.0
0.0 0.0 0.0
0.0 0.0 0.0
0.0 0.0 0.0
0.0 0.0 0.0
0.0 0.0 0.0
0.0 0.0 0.0
0.0 0.0 0.0
0.0 0.0 0.0
0.0 0.0 0.0
0.0 0.0 0.0
0.0 0.0 0.0
0.0 0.0 0.0
0.0 0.0 0.0
0.0 0.0 0.0
0.0 0.0 0.0
0.0 0.0 0.0
0.0 0.0 0.0
0.0 0.0 0.0
0.0 0.0 0.0
0.0 0.0 0.0
0.0 0.0 0.0
0.0 0.0 0.0
0.0 0.0 0.0
0.0 0.0 0.0
0.0 0.0 0.0
0.0 0.0 0.0
0.0 0.0 0.0
0.0 0.0 0.0
0.0 0.0 0.0
0.0 0.0 0.0
0.0 0.0 0.0
0.606218810546 0.000125131211199 0.0
1.02480337426 0.000126602659021 0.0
1.26509640738 -0.000138743156517 0.0
1.37603152325 -0.000318903549705 0.0
0.311540041181 0.000527256844169 0.0
0.822601472239 0.00196418862141 0.0
1.15119618177 0.000372205973902 0.0
1.32313981709 -0.000635676564218 0.0
1.39925348495 -0.000218233039237 0.0
1.42457384422 0.0 0.0
1.42482394717 0.0 0.0
1.425086058 0.0 0.0
1.42532781886 0.0 0.0
1.42467419822 0.0 0.0
1.42581321954 0.0 0.0
1.42598592274 0.0 0.0
1.42545430259 0.0 0.0
1.42622606657 0.0 0.0
1.42647373407 0.0 0.0
1.42608100404 0.0 0.0
1.42693245069 0.0 0.0
1.42708992725 0.0 0.0
1.42648947881 0.0 0.0
1.42540040916 0.0 0.0
1.42545512869 0.0 0.0
1.42644735777 0.0 0.0
1.42531793074 0.0 0.0
1.42523552915 0.0 0.0
1.42615331255 0.0 0.0
1.42487775012 0.0 0.0
1.42468201505 0.0 0.0
1.42550064776 0.0 0.0
1.42422170973 0.0 0.0
1.42417857799 0.0 0.0
1.42526267662 0.0 0.0
1.4243135377 0.0 0.0
1.42459606958 0.0 0.0
1.42591521848 0.0 0.0
1.42511195145 0.0 0.0
1.42544413466 0.0 0.0
1.4267986373 0.0 0.0
1.42600209941 0.0 0.0
1.42629552089 0.0 0.0
1.42761775753 0.0 0.0
1.42674332675 0.0 0.0
1.42689637116 0.0 0.0
1.42806374175 0.0 0.0
1.42667946902 0.0 0.0
1.42627325432 0.0 0.0
1.42743536546 0.0 0.0
1.42624991218 0.0 0.0
1.42582322388 0.0 0.0
1.42696876807 0.0 0.0
1.42577672943 0.0 0.0
1.42514400065 0.0 0.0
1.42563086785 0.0 0.0
1.42313290781 0.0 0.0
1.4202968882 0.0 0.0
1.41801875144 0.0 0.0
1.41310034572 0.0 0.0
1.40833697686 0.0 0.0
1.4051271712 0.0 0.0
1.40341237593 0.0 0.0
1.39888334507 0.0 0.0
1.39438232712 0.0 0.0
1.39103670264 0.0 0.0
1.38849734537 0.0 0.0
1.3842687314 0.0 0.0
1.3805009729 0.0 0.0
1.37803765135 0.0 0.0
1.37317354564 0.0 0.0
1.36859510906 0.0 0.0
1.36532081004 0.0 0.0
1.35958299962 0.0 0.0
1.35421259804 0.0 0.0
1.35012125037 0.0 0.0
1.34364292606 0.0 0.0
1.33738093755 0.0 0.0
1.33222099563 0.0 0.0
1.32741015897 0.0 0.0
1.31927118313 0.0 0.0
1.31265203604 0.0 0.0
1.30506816616 0.0 0.0
1.29663296742 0.0 0.0
1.28960986813 0.0 0.0
1.28055383918 0.0 0.0
1.27180687325 0.0 0.0
1.26378490357 0.0 0.0
1.25588045189 0.0 0.0
1.2467370154 0.0 0.0
1.23791070827 0.0 0.0
1.22913651494 0.0 0.0
1.21947983638 0.0 0.0
1.20984188345 0.0 0.0
1.19999643495 0.0 0.0
1.18964885343 0.0 0.0
1.17896921817 0.0 0.0
1.16784735005 0.0 0.0
1.15628448679 0.0 0.0
1.14382994397 0.0 0.0
1.13048638053 0.0 0.0
1.11641436338 0.0 0.0
1.10044217058 0.0 0.0
1.08257715053 0.0 0.0
1.06311500946 0.0 0.0
1.04116431958 0.0 0.0
1.02027420687 0.0 0.0
1.00350078803 0.0 0.0
1.42440675209 0.0 0.0
1.4238440315 0.0 0.0
1.4254376314 0.0 0.0
1.42393926316 0.0 0.0
1.42397782965 0.0 0.0
1.42453458554 0.0 0.0
1.42633915038 0.0 0.0
1.42479562843 0.0 0.0
1.42483638785 0.0 0.0
1.42674343905 0.0 0.0
1.42534425705 0.0 0.0
1.42548876006 0.0 0.0
1.42740912447 0.0 0.0
1.42587959519 0.0 0.0
1.42594234195 0.0 0.0
1.42476096271 0.0 0.0
1.42602862815 0.0 0.0
1.4259313032 0.0 0.0
1.42456554052 0.0 0.0
1.42575547397 0.0 0.0
1.4255489725 0.0 0.0
1.42406893305 0.0 0.0
1.42513629326 0.0 0.0
1.42489265734 0.0 0.0
1.4234864902 0.0 0.0
1.42476145241 0.0 0.0
1.42485470479 0.0 0.0
1.42378467115 0.0 0.0
1.42532196666 0.0 0.0
1.42559482258 0.0 0.0
1.42462422326 0.0 0.0
1.42620156474 0.0 0.0
1.42647522924 0.0 0.0
1.42548419178 0.0 0.0
1.42703687426 0.0 0.0
1.42724786042 0.0 0.0
1.4261712083 0.0 0.0
1.42752866686 0.0 0.0
1.42747822893 0.0 0.0
1.42598541357 0.0 0.0
1.42675561194 0.0 0.0
1.42711633062 0.0 0.0
1.42556334075 0.0 0.0
1.42629151055 0.0 0.0
1.42665300108 0.0 0.0
1.42500421549 0.0 0.0
1.42529834815 0.0 0.0
1.42454936084 0.0 0.0
1.42113911183 0.0 0.0
1.41892503102 0.0 0.0
1.41550522286 0.0 0.0
1.40989571841 0.0 0.0
1.40635390802 0.0 0.0
1.4029597859 0.0 0.0
1.40027800855 0.0 0.0
1.3964418102 0.0 0.0
1.39191777173 0.0 0.0
1.38953222309 0.0 0.0
1.38645822048 0.0 0.0
1.38172524763 0.0 0.0
1.37896378781 0.0 0.0
1.37566719109 0.0 0.0
1.37006713505 0.0 0.0
1.3666165715 0.0 0.0
1.36244357579 0.0 0.0
1.35603197106 0.0 0.0
1.35178337509 0.0 0.0
1.34681958877 0.0 0.0
1.33973021232 0.0 0.0
1.33452353713 0.0 0.0
1.32866022383 0.0 0.0
1.32242845257 0.0 0.0
1.31533131999 0.0 0.0
1.30822139534 0.0 0.0
1.30028631051 0.0 0.0
1.2925155284 0.0 0.0
1.28386961885 0.0 0.0
1.27581496297 0.0 0.0
1.26733291904 0.0 0.0
1.25971872903 0.0 0.0
1.25089109282 0.0 0.0
1.24192610647 0.0 0.0
1.23339573335 0.0 0.0
1.22399933999 0.0 0.0
1.21444018785 0.0 0.0
1.20478511815 0.0 0.0
1.19466241574 0.0 0.0
1.18428835334 0.0 0.0
1.17329807878 0.0 0.0
1.16208119579 0.0 0.0
1.15021246863 0.0 0.0
1.13710398824 0.0 0.0
1.12364970115 0.0 0.0
1.10877063682 0.0 0.0
1.09151719412 0.0 0.0
1.07302897615 0.0 0.0
1.05246983216 0.0 0.0
1.03059968268 0.0 0.0
1.01124955937 0.0 0.0
0.998569161107 0.0 0.0
1.0 0.0 0.0
1.0 0.0 0.0
1.0 0.0 0.0
1.0 0.0 0.0
1.0 0.0 0.0
1.0 0.0 0.0
1.0 0.0 0.0
1.0 0.0 0.0
1.0 0.0 0.0
1.16744244953 -0.0716360813167 0.0
1.22432634602 -0.046538057276 0.0
1.22793915907 -0.0312455290656 0.0
1.13624607401 -8.32510375232e-05 0.0
1.16813067576 -0.000112263744183 0.0
1.16754414612 -3.64609242337e-05 0.0
1.16456468066 0.000122600251316 0.0
1.16206253827 0.000174765402492 0.0
1.16195734219 0.000146623542061 0.0
1.1618509624 -4.11945483534e-05 0.0
1.16186019087 -0.000310745484672 0.0
1.16150980406 -0.000261837130638 0.0
1.16077393691 3.01923415366e-05 0.0
1.15993570518 0.000348237821555 0.0
1.15930908587 0.000499571635627 0.0
1.11579541699 0.00030065031381 0.0
1.11582369544 -5.99568548887e-05 0.0
1.11587237356 -0.000242151738811 0.0
1.11620751228 -0.000617582243349 0.0
1.16260674596 -0.00233480689709 0.0
1.22037529547 -0.0229045763826 0.0
1.13287855297 -0.00256759562028 0.0
1.11839706232 -0.00143491091551 0.0
1.20698473529 -0.0176078357258 0.0
1.13854959699 -0.00361974104494 0.0
1.15637229796 -0.0020498701747 0.0
1.19353731212 -0.0139863820784 0.0
1.14586357342 -0.00471845105839 0.0
1.1810113212 -0.0113681721949 0.0
1.18298307029 -0.00642410263609 0.0
1.19380824305 -0.0105763858335 0.0
1.16127260741 -0.00232447608945 0.0
1.17082736961 -0.00970883422803 0.0
0.949908556465 -0.000823590242195 0.0
1.20815215802 -0.142662798848 0.0
1.29316847223 -0.0107182438841 0.0
1.28133161828 -0.0126315378129 0.0
1.310935351 -0.00678047934443 0.0
1.26694869893 -0.0148806059876 0.0
1.31100829987 -0.00539451738007 0.0
1.21772327448 -0.0211392958664 0.0
1.2466481901 -0.0176279383231 0.0
1.31196897347 -0.00421730712626 0.0
1.31200397423 -0.00319911344081 0.0
1.31174220771 -0.00307701612639 0.0
1.30995140058 -0.00200415916986 0.0
1.30895277504 -0.000601999951487 0.0
1.30940993277 -0.000283074884332 0.0
1.30967812496 -8.30801506761e-05 0.0
1.30234641746 0.000190391513354 0.0
1.30187988611 0.000404796857645 0.0
1.30189770324 0.000273294856216 0.0
1.2065554677 -0.0513773407177 0.0
1.30238329456 8.67244774889e-06 0.0
1.30322499609 -0.000255344245373 0.0
1.30375951163 -0.000289947901032 0.0
1.17683526568 -0.0258120404281 0.0
1.3037293241 -5.38684090481e-05 0.0
1.13702068241 -0.0284452735421 0.0
1.12906417827 -0.0336403496126 0.0
1.30233722416 0.000132105712739 0.0
1.30227914503 4.51820548952e-05 0.0
0.907015428061 -0.000152731159548 0.0
1.30230124244 0.000159431149549 0.0
0.906695013281 -0.000382780918316 0.0
0.972308060796 -0.00710872982224 0.0
0.992003770771 -0.00851809121413 0.0
0.93285093247 -0.00282790035621 0.0
1.08535420006 -0.0192367705913 0.0
1.01588073456 -0.0108885714558 0.0
0.922230472975 -0.00271072564123 0.0
1.04605574705 -0.0143293605092 0.0
0.914642582897 -0.00199854901911 0.0
0.908785231922 -0.00128454591726 0.0
0.90992438342 -0.000886020103983 0.0
0.907171482371 -0.000860880583034 0.0
0.905807217948 -0.000461238288658 0.0
0.905015435101 -0.000311822084977 0.0
0.90452739269 -2.79140277506e-05 0.0
0.904805929571 0.000343745075397 0.0
0.905367747713 0.000276604840411 0.0
0.905877887972 6.03698223463e-05 0.0
0.905840092798 -0.00017374559179 0.0
0.905357034038 -0.000274648433793 0.0
0.904830334769 -0.000123769833706 0.0
1.30538046854 -6.5169271643e-05 0.0
0.904722113292 6.16560847253e-05 0.0
0.9049329794 8.57886327998e-05 0.0
0.90528446168 9.32745918738e-05 0.0
0.905519552085 8.42078020721e-05 0.0
1.31667550477 2.92653907943e-05 0.0
1.03615909286 -0.0364521931209 0.0
1.31890131223 0.000465746273378 0.0
1.31272712836 -0.00291173764485 0.0
1.31272239187 -0.00812670427543 0.0
1.30426610321 -0.00963602466476 0.0
1.32351543366 -0.00307304956813 0.0
0.849565238428 -0.00225615944119 0.0
0.892079211218 -0.000939518889321 0.0
0.8938174689 -0.00329136816495 0.0
0.903018404437 -0.00777692214808 0.0
1.17463648917 -0.0756758685321 0.0
1.03454283495 -0.0276847961244 0.0
1.32105891976 -0.000323045372448 0.0
1.35616164288 7.21776768297e-05 0.0
1.35587100557 -0.00017176211654 0.0
1.13833119756 -0.021150143534 0.0
1.34757113563 0.000220102627861 0.0
1.0752883161 -0.0284987548361 0.0
1.35502134003 -0.000286596383429 0.0
1.34709239564 0.000279340635355 0.0
1.34702478701 0.000149409055815 0.0
1.35070434346 -0.00151550845323 0.0
0.946876066284 -0.0155792151821 0.0
1.34759595254 -6.19239122872e-05 0.0
1.35066853312 -0.00295045773044 0.0
1.34846547962 -0.000274314311012 0.0
1.3489163687 -0.000202116551926 0.0
1.18446706694 -0.0169924611614 0.0
1.34887085384 9.01826897767e-06 0.0
1.34267814872 0.000117051127122 0.0
1.36936247006 0.00015192362278 0.0
0.680862474908 0.000147835701502 0.0
1.34661293962 -0.00278766849808 0.0
1.36753422575 6.74570430082e-05 0.0
0.697479253999 0.000155476420668 0.0
0.654293902196 0.00060717816117 0.0
1.36770510871 -3.31278788416e-05 0.0
0.678904709735 0.000429114528481 0.0
1.34488883725 -0.0034645201598 0.0
1.22071438701 -0.0144487333046 0.0
0.678241946545 0.000446441976424 0.0
0.677645294848 0.000482912793909 0.0
0.677099851029 0.000438440941847 0.0
0.677007281892 0.000325202313204 0.0
1.34066631434 -0.00441435262257 0.0
1.25033060409 -0.0125738432696 0.0
0.677365702177 0.000317261691332 0.0
0.677594535729 0.000417504846456 0.0
0.677267893093 0.000524672808207 0.0
0.676210911326 0.00062338508624 0.0
0.675476098084 0.000363351837923 0.0
1.33387516865 -0.00547261845257 0.0
1.27382712684 -0.0109558632001 0.0
0.675065092516 0.000203993389851 0.0
0.675457058176 0.000128407039024 0.0
0.525942233542 -0.000102700739671 0.0
0.676213681224 -1.98686072691e-05 0.0
0.836976993024 -0.00820213148762 0.0
0.683302255594 -0.000280997187392 0.0
0.798687281272 -0.0058508510664 0.0
0.688223143335 -0.000674415028643 0.0
0.677346834908 -0.000175484436816 0.0
0.770175049658 -0.00440571730751 0.0
0.694549828898 -0.000741469951106 0.0
0.748035043748 -0.00337364778478 0.0
0.5405413738 0.000311748235264 0.0
0.625839803464 -0.00234989869422 0.0
0.574607790811 0.000245351711132 0.0
1.32364007107 -0.00606946031531 0.0
1.29282307207 -0.0096290757392 0.0
1.30583368679 -0.00882169038027 0.0
1.329262937 -0.00657524465778 0.0
1.34827247689 -0.00253104002772 0.0
1.35354557952 -0.00286222944336 0.0
0.657995595858 -0.00213926100799 0.0
0.857535748773 -0.00761254751017 0.0
1.36702298112 -0.000116052212534 0.0
1.04287595084 -0.0598122671183 0.0
1.16167664223 9.11625112178e-05 0.0
1.21724947361 -0.00028506143436 0.0
1.0427449508 -0.0185211511668 0.0
0.569858118171 0.000237833457818 0.0
1.10683502562 -0.0708273653055 0.0
1.01953095542 -0.0551132869957 0.0
0.621774533575 -0.00136489994979 0.0
1.38492089072 -4.89689716736e-05 0.0
1.38537454586 -0.000269227123455 0.0
1.38343353422 0.000298007746138 0.0
1.38481531476 -0.000305508802957 0.0
1.27664579389 -0.296530516862 0.0
1.3837123714 -0.00108536625492 0.0
1.38266163597 0.000328370083805 0.0
1.38187019686 -0.0026221342014 0.0
1.38227800744 0.000253209596208 0.0
1.38252470714 0.000104172365725 0.0
1.19620962136 -0.0100406877856 0.0
1.36521392029 -0.00292008000999 0.0
1.10866039742 -0.0154021079447 0.0
1.35851497644 -0.00361741889407 0.0
1.2299916013 -0.00890770059252 0.0
1.3831642183 -7.84013261604e-05 0.0
1.3495533975 -0.00434009614548 0.0
1.258732498 -0.00790809807935 0.0
1.15657578098 -0.0118039742211 0.0
1.28314541433 -0.00702281834936 0.0
1.38354571572 -1.6664265545e-05 0.0
1.38290045211 0.000114487453494 0.0
1.38213486921 0.000157708124865 0.0
1.38038770058 0.000625183245644 0.0
1.38102305506 0.000453876928275 0.0
1.38175613531 0.000282002926499 0.0
1.16607095108 -0.00231323353013 0.0
0.749099906505 -0.00967538708692 0.0
0.802585909889 -0.0156751692292 0.0
0.860467007887 -0.0222679927767 0.0
0.718480281801 -0.00867913026644 0.0
0.536928430029 -0.000387941046109 0.0
0.536636020753 -0.000333660417138 0.0
0.536366316239 -0.000316665971002 0.0
1.20603241232 -0.00810939506952 0.0
0.536064060141 -0.000341740405111 0.0
0.536019875643 -0.000422803733349 0.0
0.536456084551 -0.00046311975267 0.0
1.16514483446 0.000386710366968 0.0
1.21039930351 -0.0107078711006 0.0
0.536960829696 -0.000407502434496 0.0
1.16543350713 0.000278855215174 0.0
0.537073592236 -0.000320684766075 0.0
0.536661240905 -0.000276251274936 0.0
0.535651579117 0.000224877338627 0.0
0.535244271918 8.22306695128e-05 0.0
1.15424966186 0.000370075976726 0.0
0.535669990829 6.15702630739e-06 0.0
1.15382719892 0.000897081662497 0.0
0.545343170943 -0.000173903591211 0.0
0.536523623485 -5.94234444574e-05 0.0
1.15345365611 0.000814735820844 0.0
0.547445214868 -0.000516195375623 0.0
1.15369057375 0.000698592208439 0.0
0.544242302768 -0.000917251183332 0.0
0.537846476651 -0.000307939936008 0.0
1.15375490953 0.00042538498822 0.0
0.544798699672 -0.000750890623938 0.0
0.525209676111 6.45168537209e-05 0.0
1.15360664251 0.000369370968631 0.0
0.689942697903 -0.00770782638523 0.0
1.15302374496 0.000621048966903 0.0
1.1522805124 0.000955451617412 0.0
0.545054616103 -0.000126883876431 0.0
1.15155564459 0.00117352390743 0.0
1.14886504528 0.000802270677228 0.0
1.22892476354 -0.0261370656022 0.0
0.653970933812 -0.00521360257483 0.0
0.549049862943 -0.000702142738375 0.0
1.1470908534 0.000553014576211 0.0
1.14716328689 0.000292517847448 0.0
0.627876827515 -0.00406432094157 0.0
0.5543356334 -0.000954578897327 0.0
1.14726664586 6.5398268322e-05 0.0
0.608026771599 -0.00324098863942 0.0
0.536282647096 -0.000580185848585 0.0
1.14886487347 -0.000774654696676 0.0
1.15026029651 -0.00140902997448 0.0
0.578501669857 -0.00229304895261 0.0
1.15873308806 -0.00265933698882 0.0
1.1631509844 -0.00204264936541 0.0
1.16817764854 -0.00292876213245 0.0
1.22378178173 -0.0204060351853 0.0
1.17437600343 -0.00404107590044 0.0
1.21581249143 -0.0163891175402 0.0
1.17858280589 -0.00522716498249 0.0
1.2072353321 -0.0134558218137 0.0
1.19593201847 -0.011314558185 0.0
1.22244266376 -0.0377164052704 0.0
1.20106872167 -0.0487734142719 0.0
1.18555404888 -0.0552706719395 0.0
1.19381334308 -0.00980958196738 0.0
1.22560621669 -0.0343115736481 0.0
1.22702995289 -0.0267491273593 0.0
1.20293279524 -0.0120920731807 0.0
1.1704077811 -0.00643197999873 0.0
1.21278147337 -0.0152593901116 0.0
1.16284374817 -0.00522616856382 0.0
1.22183119958 -0.0196604874726 0.0
1.15726330847 -0.00406458575242 0.0
0.603366648819 -0.00212470040254 0.0
1.15879746789 -0.00283117996384 0.0
0.622980288863 -0.00300794108634 0.0
0.562869798838 -0.00129156314267 0.0
0.692924145986 -0.00707002571422 0.0
1.14458182219 -0.00276076002406 0.0
0.645091553906 -0.00388721963193 0.0
0.561345064788 -0.00141700064152 0.0
1.14198704386 -0.00196575138135 0.0
1.14119866363 -0.00129151201262 0.0
0.674465293857 -0.00513860848113 0.0
0.556642757373 -0.00114259559471 0.0
1.14128588549 -0.00111943685632 0.0
1.37977030874 -0.000200339599224 0.0
1.14122533272 -0.000753037262547 0.0
1.15279697837 -0.00014233223456 0.0
0.530088659692 0.000177664581246 0.0
1.1537240456 -0.000136954874089 0.0
1.15457621754 -0.000411103849338 0.0
1.15539398212 -0.000734044765867 0.0
1.15594991155 -0.000902850926304 0.0
1.15607093939 -0.000736352181316 0.0
1.15613011303 -0.000493625789182 0.0
1.15594953075 -0.000526507303418 0.0
1.1586385176 -0.000353384906152 0.0
1.15679542573 -5.79151277612e-05 0.0
1.15766644825 -0.000391157825628 0.0
1.15532119616 -0.000685582139605 0.0
1.37042467449 -0.00244292297796 0.0
1.38150715956 -0.000214990362028 0.0
0.547551717709 -0.00102584216322 0.0
0.541123841959 -0.000962081678865 0.0
0.539983416428 -0.000783708138869 0.0
0.539252487348 -0.000711077875042 0.0
0.539080423433 -0.000596799259669 0.0
1.38209776095 -2.27343922455e-05 0.0
0.539930969161 -8.93833968017e-05 0.0
0.540742143117 -0.000242450976755 0.0
0.54097861514 -0.000289011497406 0.0
0.540713575507 -0.000362357980367 0.0
0.540179574396 -0.000386279755169 0.0
0.539903531788 -0.000321825863569 0.0
1.38293468234 -0.000170699134955 0.0
0.54010281837 -0.000275583897815 0.0
0.540439063187 -0.000282741427534 0.0
0.540754493923 -0.000295579229343 0.0
0.54455904614 0.000158004199438 0.0
1.38270603098 -0.000290449297436 0.0
1.3820420842 -0.00018837334035 0.0
1.31117804532 -0.00704726962488 0.0
1.38152190262 4.25439079511e-06 0.0
1.33198157231 -0.0049195564659 0.0
0.950463295949 -0.000152539848932 0.0
1.38160306948 0.000110855511237 0.0
1.00676729935 -0.0137394245128 0.0
1.08504098593 -0.0181182468153 0.0
1.3797428769 -0.000322389702899 0.0
1.3822095096 0.000143079291633 0.0
1.21778153551 -0.0929329411696 0.0
1.38306939066 6.34377323928e-05 0.0
1.39322936612 0.00013457283205 0.0
1.3725694422 -0.00198083361483 0.0
1.39278641056 8.39159182452e-05 0.0
1.3920477474 -0.000203586745156 0.0
1.37873557462 5.86993706255e-05 0.0
1.38970850794 -0.00154302999669 0.0
1.38509850575 -0.00206796379478 0.0
1.13526155527 -0.0107662063414 0.0
1.1770176749 -0.00898051580814 0.0
1.37023813621 -0.00194161706167 0.0
1.3429928381 -0.00357606868709 0.0
1.29214264717 -0.00569021707754 0.0
1.36349049319 -0.00250458387258 0.0
1.21247383109 -0.00787490985433 0.0