# vtk DataFile Version 2.0
2D Simulation Python
ASCII
DATASET UNSTRUCTURED_GRID
FIELD FieldData 1
NODES 1 2 int
5463 2620

POINTS 5463 double
0.0 1.0 0.0
1.725 1.0 0.0
8.275 1.0 0.0
10.0 1.0 0.0
10.0 0.0 0.0
0.0 0.0 0.0
0.09583333333314978 1.0 0.0
0.1916666666663293 1.0 0.0
0.2874999999994224 1.0 0.0
0.3833333333324708 1.0 0.0
0.4791666666655263 1.0 0.0
0.574999999998553 1.0 0.0
0.6708333333315749 1.0 0.0
0.7666666666645966 1.0 0.0
0.8624999999976839 1.0 0.0
0.9583333333312576 1.0 0.0
1.054166666664865 1.0 0.0
1.149999999998384 1.0 0.0
1.245833333332023 1.0 0.0
1.341666666665662 1.0 0.0
1.437499999999301 1.0 0.0
1.533333333332819 1.0 0.0
1.629166666666443 1.0 0.0
0.04791666666658331 1.0 0.0
0.143749999999736 1.0 0.0
0.2395833333328882 1.0 0.0
0.3354166666659436 1.0 0.0
0.4312499999990015 1.0 0.0
0.5270833333320396 1.0 0.0
0.6229166666650651 1.0 0.0
0.718749999998081 1.0 0.0
0.8145833333311351 1.0 0.0
0.9104166666644682 1.0 0.0
1.00624999999812 1.0 0.0
1.102083333331604 1.0 0.0
1.197916666665208 1.0 0.0
1.293749999998914 1.0 0.0
1.389583333332433 1.0 0.0
1.485416666666083 1.0 0.0
1.581249999999631 1.0 0.0
1.677083333333264 1.0 0.0
1.824242424242242 1.0 0.0
1.92348484848444 1.0 0.0
2.022727272726717 1.0 0.0
2.121969696968978 1.0 0.0
2.221212121211135 1.0 0.0
2.320454545453434 1.0 0.0
2.419696969695623 1.0 0.0
2.518939393937826 1.0 0.0
2.618181818180112 1.0 0.0
2.717424242422235 1.0 0.0
2.816666666664341 1.0 0.0
2.915909090906411 1.0 0.0
3.015151515148588 1.0 0.0
3.1143939393908 1.0 0.0
3.213636363632884 1.0 0.0
3.312878787875129 1.0 0.0
3.412121212117286 1.0 0.0
3.511363636359531 1.0 0.0
3.610606060601614 1.0 0.0
3.709848484843827 1.0 0.0
3.809090909086003 1.0 0.0
3.90833333332816 1.0 0.0
4.007575757570265 1.0 0.0
4.106818181812215 1.0 0.0
4.20606060605463 1.0 0.0
4.305303030296804 1.0 0.0
4.404545454538924 1.0 0.0
4.503787878781365 1.0 0.0
4.603030303023349 1.0 0.0
4.702272727265711 1.0 0.0
4.80151515150799 1.0 0.0
4.900757575750005 1.0 0.0
4.999999999992499 1.0 0.0
5.099242424235156 1.0 0.0
5.198484848477834 1.0 0.0
5.297727272720327 1.0 0.0
5.396969696963127 1.0 0.0
5.496212121205663 1.0 0.0
5.595454545448268 1.0 0.0
5.694696969690998 1.0 0.0
5.79393939393367 1.0 0.0
5.89318181817668 1.0 0.0
5.992424242419174 1.0 0.0
6.09166666666213 1.0 0.0
6.190909090904857 1.0 0.0
6.290151515147423 1.0 0.0
6.389393939390537 1.0 0.0
6.488636363633031 1.0 0.0
6.587878787875884 1.0 0.0
6.687121212118713 1.0 0.0
6.786363636361205 1.0 0.0
6.885606060604342 1.0 0.0
6.984848484846887 1.0 0.0
7.084090909089381 1.0 0.0
7.183333333331875 1.0 0.0
7.282575757574369 1.0 0.0
7.381818181816861 1.0 0.0
7.481060606059355 1.0 0.0
7.580303030301849 1.0 0.0
7.679545454544343 1.0 0.0
7.778787878786837 1.0 0.0
7.878030303029329 1.0 0.0
7.977272727271822 1.0 0.0
8.076515151514705 1.0 0.0
8.175757575757507 1.0 0.0
1.774621212121118 1.0 0.0
1.873863636363336 1.0 0.0
1.973106060605584 1.0 0.0
2.072348484847854 1.0 0.0
2.171590909090051 1.0 0.0
2.270833333332294 1.0 0.0
2.370075757574505 1.0 0.0
2.46931818181677 1.0 0.0
2.568560606058992 1.0 0.0
2.667803030301191 1.0 0.0
2.767045454543263 1.0 0.0
2.866287878785363 1.0 0.0
2.965530303027505 1.0 0.0
3.064772727269675 1.0 0.0
3.164015151511822 1.0 0.0
3.26325757575398 1.0 0.0
3.362499999996192 1.0 0.0
3.461742424238433 1.0 0.0
3.560984848480605 1.0 0.0
3.660227272722715 1.0 0.0
3.759469696964906 1.0 0.0
3.858712121207081 1.0 0.0
3.957954545449216 1.0 0.0
4.057196969691234 1.0 0.0
4.156439393933391 1.0 0.0
4.255681818175672 1.0 0.0
4.354924242417844 1.0 0.0
4.454166666660115 1.0 0.0
4.55340909090234 1.0 0.0
4.65265151514444 1.0 0.0
4.751893939386893 1.0 0.0
4.851136363629063 1.0 0.0
4.950378787871312 1.0 0.0
5.049621212113824 1.0 0.0
5.14886363635649 1.0 0.0
5.248106060599104 1.0 0.0
5.347348484841709 1.0 0.0
5.446590909084392 1.0 0.0
5.545833333326991 1.0 0.0
5.645075757569632 1.0 0.0
5.744318181812345 1.0 0.0
5.843560606055211 1.0 0.0
5.942803030297938 1.0 0.0
6.042045454540652 1.0 0.0
6.141287878783452 1.0 0.0
6.240530303026139 1.0 0.0
6.339772727269064 1.0 0.0
6.439015151511773 1.0 0.0
6.538257575754375 1.0 0.0
6.637499999997285 1.0 0.0
6.736742424239948 1.0 0.0
6.835984848482736 1.0 0.0
6.935227272725639 1.0 0.0
7.034469696968184 1.0 0.0
7.133712121210591 1.0 0.0
7.232954545453168 1.0 0.0
7.332196969695653 1.0 0.0
7.431439393938073 1.0 0.0
7.530681818180602 1.0 0.0
7.629924242423158 1.0 0.0
7.729166666665552 1.0 0.0
7.828409090908144 1.0 0.0
7.927651515150597 1.0 0.0
8.0268939393933 1.0 0.0
8.126136363636105 1.0 0.0
8.225378787878737 1.0 0.0
8.370833333332062 1.0 0.0
8.46666666666447 1.0 0.0
8.562499999996877 1.0 0.0
8.658333333329285 1.0 0.0
8.754166666662387 1.0 0.0
8.84999999999549 1.0 0.0
8.945833333328592 1.0 0.0
9.041666666661694 1.0 0.0
9.137499999994796 1.0 0.0
9.233333333327899 1.0 0.0
9.329166666661424 1.0 0.0
9.42499999999549 1.0 0.0
9.52083333332944 1.0 0.0
9.616666666663775 1.0 0.0
9.712499999997572 1.0 0.0
9.808333333331985 1.0 0.0
9.904166666665859 1.0 0.0
8.32291666666603 1.0 0.0
8.418749999998099 1.0 0.0
8.514583333330538 1.0 0.0
8.610416666663248 1.0 0.0
8.70624999999606 1.0 0.0
8.802083333329064 1.0 0.0
8.897916666661915 1.0 0.0
8.993749999995174 1.0 0.0
9.089583333328244 1.0 0.0
9.185416666661306 1.0 0.0
9.281249999995056 1.0 0.0
9.377083333328457 1.0 0.0
9.47291666666263 1.0 0.0
9.568749999996916 1.0 0.0
9.664583333330446 1.0 0.0
9.76041666666466 1.0 0.0
9.856249999999013 1.0 0.0
9.952083333332835 1.0 0.0
10.0 0.8999999999995836 0.0
10.0 0.7999999999999998 0.0
10.0 0.7000000000006934 0.0
10.0 0.6000000000013869 0.0
10.0 0.5000000000020587 0.0
10.0 0.4000000000016644 0.0
10.0 0.3000000000012483 0.0
10.0 0.2000000000008322 0.0
10.0 0.100000000000416 0.0
10.0 0.9499999999997965 0.0
10.0 0.8499999999997665 0.0
10.0 0.7500000000003316 0.0
10.0 0.6500000000010593 0.0
10.0 0.5500000000016854 0.0
10.0 0.4500000000018616 0.0
10.0 0.3500000000014563 0.0
10.0 0.2500000000010403 0.0
10.0 0.1500000000006241 0.0
10.0 0.05000000000020799 0.0
9.9 0.0 0.0
9.799999999999999 0.0 0.0
9.7 0.0 0.0
9.6 0.0 0.0
9.499999999999998 0.0 0.0
9.399999999999999 0.0 0.0
9.299999999999999 0.0 0.0
9.2 0.0 0.0
9.099999999999998 0.0 0.0
8.999999999999998 0.0 0.0
8.899999999999999 0.0 0.0
8.799999999999997 0.0 0.0
8.699999999999998 0.0 0.0
8.599999999999998 0.0 0.0
8.499999999999996 0.0 0.0
8.399999999999997 0.0 0.0
8.299999999999997 0.0 0.0
8.199999999999998 0.0 0.0
8.099999999999998 0.0 0.0
7.999999999999997 0.0 0.0
7.899999999999997 0.0 0.0
7.799999999999997 0.0 0.0
7.699999999999998 0.0 0.0
7.599999999999998 0.0 0.0
7.499999999999998 0.0 0.0
7.399999999999997 0.0 0.0
7.299999999999997 0.0 0.0
7.199999999999998 0.0 0.0
7.099999999999998 0.0 0.0
6.999999999999997 0.0 0.0
6.899999999999998 0.0 0.0
6.799999999999997 0.0 0.0
6.699999999999998 0.0 0.0
6.599999999999998 0.0 0.0
6.499999999999998 0.0 0.0
6.399999999999997 0.0 0.0
6.299999999999998 0.0 0.0
6.199999999999998 0.0 0.0
6.099999999999998 0.0 0.0
5.999999999999997 0.0 0.0
5.899999999999998 0.0 0.0
5.799999999999998 0.0 0.0
5.699999999999998 0.0 0.0
5.599999999999998 0.0 0.0
5.499999999999998 0.0 0.0
5.399999999999999 0.0 0.0
5.299999999999999 0.0 0.0
5.199999999999998 0.0 0.0
5.099999999999999 0.0 0.0
4.999999999999999 0.0 0.0
4.899999999999998 0.0 0.0
4.799999999999999 0.0 0.0
4.699999999999998 0.0 0.0
4.599999999999999 0.0 0.0
4.499999999999998 0.0 0.0
4.399999999999999 0.0 0.0
4.299999999999998 0.0 0.0
4.199999999999999 0.0 0.0
4.099999999999998 0.0 0.0
3.999999999999999 0.0 0.0
3.899999999999999 0.0 0.0
3.799999999999999 0.0 0.0
3.699999999999999 0.0 0.0
3.599999999999999 0.0 0.0
3.499999999999997 0.0 0.0
3.399999999999998 0.0 0.0
3.299999999999999 0.0 0.0
3.199999999999998 0.0 0.0
3.099999999999998 0.0 0.0
2.999999999999999 0.0 0.0
2.899999999999999 0.0 0.0
2.799999999999998 0.0 0.0
2.699999999999998 0.0 0.0
2.599999999999998 0.0 0.0
2.499999999999999 0.0 0.0
2.399999999999999 0.0 0.0
2.299999999999999 0.0 0.0
2.199999999999999 0.0 0.0
2.1 0.0 0.0
1.999999999999998 0.0 0.0
1.899999999999999 0.0 0.0
1.799999999999999 0.0 0.0
1.699999999999999 0.0 0.0
1.6 0.0 0.0
1.5 0.0 0.0
1.4 0.0 0.0
1.299999999999999 0.0 0.0
1.199999999999999 0.0 0.0
1.099999999999998 0.0 0.0
0.9999999999999982 0.0 0.0
0.9000000000000004 0.0 0.0
0.7999999999999989 0.0 0.0
0.6999999999999993 0.0 0.0
0.6000000000000014 0.0 0.0
0.5 0.0 0.0
0.3999999999999986 0.0 0.0
0.2999999999999989 0.0 0.0
0.1999999999999993 0.0 0.0
0.09999999999999964 0.0 0.0
9.950000000000111 0.0 0.0
9.849999999999985 0.0 0.0
9.749999999999934 0.0 0.0
9.650000000000023 0.0 0.0
9.549999999999994 0.0 0.0
9.449999999999935 0.0 0.0
9.349999999999998 0.0 0.0
9.249999999999993 0.0 0.0
9.150000000000004 0.0 0.0
9.049999999999937 0.0 0.0
8.950000000000063 0.0 0.0
8.849999999999998 0.0 0.0
8.749999999999936 0.0 0.0
8.650000000000125 0.0 0.0
8.550000000000004 0.0 0.0
8.450000000000026 0.0 0.0
8.350000000000014 0.0 0.0
8.250000000000028 0.0 0.0
8.149999999999984 0.0 0.0
8.049999999999997 0.0 0.0
7.949999999999934 0.0 0.0
7.849999999999996 0.0 0.0
7.749999999999996 0.0 0.0
7.649999999999999 0.0 0.0
7.550000000000017 0.0 0.0
7.450000000000027 0.0 0.0
7.349999999999959 0.0 0.0
7.24999999999998 0.0 0.0
7.149999999999995 0.0 0.0
7.05000000000004 0.0 0.0
6.949999999999942 0.0 0.0
6.850000000000014 0.0 0.0
6.750000000000021 0.0 0.0
6.649999999999959 0.0 0.0
6.549999999999974 0.0 0.0
6.450000000000082 0.0 0.0
6.349999999999999 0.0 0.0
6.249999999999932 0.0 0.0
6.150000000000017 0.0 0.0
6.050000000000081 0.0 0.0
5.950000000000025 0.0 0.0
5.849999999999971 0.0 0.0
5.749999999999967 0.0 0.0
5.650000000000027 0.0 0.0
5.54999999999995 0.0 0.0
5.450000000000021 0.0 0.0
5.349999999999977 0.0 0.0
5.25000000000006 0.0 0.0
5.149999999999993 0.0 0.0
5.049999999999967 0.0 0.0
4.950000000000038 0.0 0.0
4.849999999999985 0.0 0.0
4.749999999999991 0.0 0.0
4.649999999999984 0.0 0.0
4.550000000000054 0.0 0.0
4.449999999999986 0.0 0.0
4.349999999999979 0.0 0.0
4.249999999999999 0.0 0.0
4.150000000000015 0.0 0.0
4.049999999999988 0.0 0.0
[...]
POINT_DATA 5463
VECTORS vector double
1.0 0.0 0.0
0.0 0.0 0.0
0.0 0.0 0.0
0.0 0.0 0.0
1.02507475148 0.0 0.0
1.0 0.0 0.0
0.0 0.0 0.0
0.0 0.0 0.0
0.0 0.0 0.0
0.0 0.0 0.0
0.0 0.0 0.0
0.0 0.0 0.0
0.0 0.0 0.0
0.0 0.0 0.0
0.0 0.0 0.0
0.0 0.0 0.0
0.0 0.0 0.0
0.0 0.0 0.0
0.0 0.0 0.0
0.0 0.0 0.0
0.0 0.0 0.0
0.0 0.0 0.0
0.0 0.0 0.0
0.0 0.0 0.0
0.0 0.0 0.0
0.0 0.0 0.0
0.0 0.0 0.0
0.0 0.0 0.0
0.0 0.0 0.0
0.0 0.0 0.0
0.0 0.0 0.0
0.0 0.0 0.0
0.0 0.0 0.0
0.0 0.0 0.0
0.0 0.0 0.0
0.0 0.0 0.0
0.0 0.0 0.0
0.0 0.0 0.0
0.0 0.0 0.0
0.0 0.0 0.0
0.0 0.0 0.0
0.0 0.0 0.0
0.0 0.0 0.0
0.0 0.0 0.0
0.0 0.0 0.0
0.0 0.0 0.0
0.0 0.0 0.0
0.0 0.0 0.0
0.0 0.0 0.0
0.0 0.0 0.0
0.0 0.0 0.0
0.0 0.0 0.0
0.0 0.0 0.0
0.0 0.0 0.0
0.0 0.0 0.0
0.0 0.0 0.0
0.0 0.0 0.0
0.0 0.0 0.0
0.0 0.0 0.0
0.0 0.0 0.0
0.0 0.0 0.0
0.0 0.0 0.0
0.0 0.0 0.0
0.0 0.0 0.0
0.0 0.0 0.0
0.0 0.0 0.0
0.0 0.0 0.0
0.0 0.0 0.0
0.0 0.0 0.0
0.0 0.0 0.0
0.0 0.0 0.0
0.0 0.0 0.0
0.0 0.0 0.0
0.0 0.0 0.0
0.0 0.0 0.0
0.0 0.0 0.0
0.0 0.0 0.0
0.0 0.0 0.0
0.0 0.0 0.0
0.0 0.0 0.0
0.0 0.0 0.0
0.0 0.0 0.0
0.0 0.0 0.0
0.0 0.0 0.0
0.0 0.0 0.0
0.0 0.0 0.0
0.0 0.0 0.0
0.0 0.0 0.0
0.0 0.0 0.0
0.0 0.0 0.0
0.0 0.0 0.0
0.0 0.0 0.0
0.0 0.0 0.0
0.0 0.0 0.0
0.0 0.0 0.0
0.0 0.0 0.0
0.0 0.0 0.0
0.0 0.0 0.0
0.0 0.0 0.0
0.0 0.0 0.0
0.0 0.0 0.0
0.0 0.0 0.0
0.0 0.0 0.0
0.0 0.0 0.0
0.0 0.0 0.0
0.0 0.0 0.0
0.0 0.0 0.0
0.0 0.0 0.0
0.0 0.0 0.0
0.0 0.0 0.0
0.0 0.0 0.0
0.0 0.0 0.0
0.0 0.0 0.0
0.0 0.0 0.0
0.0 0.0 0.0
0.0 0.0 0.0
0.0 0.0 0.0
0.0 0.0 0.0
0.0 0.0 0.0
0.0 0.0 0.0
0.0 0.0 0.0
0.0 0.0 0.0
0.0 0.0 0.0
0.0 0.0 0.0
0.0 0.0 0.0
0.0 0.0 0.0
0.0 0.0 0.0
0.0 0.0 0.0
0.0 0.0 0.0
0.0 0.0 0.0
0.0 0.0 0.0
0.0 0.0 0.0
0.0 0.0 0.0
0.0 0.0 0.0
0.0 0.0 0.0
0.0 0.0 0.0
0.0 0.0 0.0
0.0 0.0 0.0
0.0 0.0 0.0
0.0 0.0 0.0
0.0 0.0 0.0
0.0 0.0 0.0
0.0 0.0 0.0
0.0 0.0 0.0
0.0 0.0 0.0
0.0 0.0 0.0
0.0 0.0 0.0
0.0 0.0 0.0
0.0 0.0 0.0
0.0 0.0 0.0
0.0 0.0 0.0
0.0 0.0 0.0
0.0 0.0 0.0
0.0 0.0 0.0
0.0 0.0 0.0
0.0 0.0 0.0
0.0 0.0 0.0
0.0 0.0 0.0
0.0 0.0 0.0
0.0 0.0 0.0
0.0 0.0 0.0
0.0 0.0 0.0
0.0 0.0 0.0
0.0 0.0 0.0
0.0 0.0 0.0
0.0 0.0 0.0
0.0 0.0 0.0
0.0 0.0 0.0
0.0 0.0 0.0
0.0 0.0 0.0
0.0 0.0 0.0
0.0 0.0 0.0
0.0 0.0 0.0
0.0 0.0 0.0
0.0 0.0 0.0
0.0 0.0 0.0
0.0 0.0 0.0
0.0 0.0 0.0
0.0 0.0 0.0
0.0 0.0 0.0
0.0 0.0 0.0
0.0 0.0 0.0
0.0 0.0 0.0
0.0 0.0 0.0
0.0 0.0 0.0
0.0 0.0 0.0
0.0 0.0 0.0
0.0 0.0 0.0
0.0 0.0 0.0
0.0 0.0 0.0
0.0 0.0 0.0
0.0 0.0 0.0
0.0 0.0 0.0
0.0 0.0 0.0
0.0 0.0 0.0
0.0 0.0 0.0
0.0 0.0 0.0
0.0 0.0 0.0
0.0 0.0 0.0
0.0 0.0 0.0
0.0 0.0 0.0
0.0 0.0 0.0
0.0 0.0 0.0
0.0 0.0 0.0
0.0 0.0 0.0
0.0 0.0 0.0
0.0 0.0 0.0
1.07444082906 -0.0142967891029 0.0
1.04446057254 -0.000222369815099 0.0
1.03518477917 0.000908087885312 0.0
1.03436434993 0.000140677182285 0.0
1.03484127492 0.000141350922236 0.0
1.03402737897 -0.000192043511354 0.0
1.03490885521 -7.49805263465e-05 0.0
1.03468921745 6.49660948349e-05 0.0
1.03439572241 7.29129612729e-05 0.0
0.736878282612 0.00637503702063 0.0
1.03225858836 -0.00258557015056 0.0
1.03770675812 -0.000663077692966 0.0
1.03528828162 -0.000109273721209 0.0
1.03590296651 2.49573168791e-05 0.0
1.03583256699 -8.83755534705e-05 0.0
1.03619693586 -1.12915621624e-05 0.0
1.03718353925 0.000101960055767 0.0
1.03673530603 1.81492097049e-05 0.0
1.03594423297 -0.000181406533917 0.0
1.03297499175 0.0 0.0
1.03521621564 0.0 0.0
1.03704082829 0.0 0.0
1.03624550336 0.0 0.0
1.03556385641 0.0 0.0
1.03602057383 0.0 0.0
1.03677695898 0.0 0.0
1.03701937065 0.0 0.0
1.03701380978 0.0 0.0
1.03624461741 0.0 0.0
1.03595170708 0.0 0.0
1.03706764479 0.0 0.0
1.03702913735 0.0 0.0
1.03721774604 0.0 0.0
1.03712848685 0.0 0.0
1.03658662466 0.0 0.0
1.03619985356 0.0 0.0
1.03684169003 0.0 0.0
1.03660783956 0.0 0.0
1.03649291481 0.0 0.0
1.03717898951 0.0 0.0
1.03637174336 0.0 0.0
1.03650750503 0.0 0.0
1.03732909261 0.0 0.0
1.03686158559 0.0 0.0
1.03647948942 0.0 0.0
1.03626022178 0.0 0.0
1.03582353247 0.0 0.0
1.03654997386 0.0 0.0
1.03670230066 0.0 0.0
1.03632344874 0.0 0.0
1.0356667521 0.0 0.0
1.03656223189 0.0 0.0
1.03722487712 0.0 0.0
1.03776632105 0.0 0.0
1.03787494578 0.0 0.0
1.03830657192 0.0 0.0
1.03537404342 0.0 0.0
1.03663771155 0.0 0.0
1.0376400552 0.0 0.0
1.03695977202 0.0 0.0
1.03632152256 0.0 0.0
1.03729127137 0.0 0.0
1.03472530592 0.0 0.0
1.03708001138 0.0 0.0
1.03699190809 0.0 0.0
1.03674004063 0.0 0.0
1.0368297002 0.0 0.0
1.03711966796 0.0 0.0
1.03735234154 0.0 0.0
1.03479444597 0.0 0.0
1.03763168097 0.0 0.0
1.03672811334 0.0 0.0
1.03723816158 0.0 0.0
1.03789845251 0.0 0.0
1.03495087868 0.0 0.0
1.03761918955 0.0 0.0
1.03860094939 0.0 0.0
1.0375308267 0.0 0.0
1.03813105471 0.0 0.0
1.03876253495 0.0 0.0
1.0376523487 0.0 0.0
1.03634005046 0.0 0.0
1.03915260016 0.0 0.0
1.03860515279 0.0 0.0
1.03836725556 0.0 0.0
1.03789587169 0.0 0.0
1.03718306599 0.0 0.0
1.03688551035 0.0 0.0
1.03730606635 0.0 0.0
1.03652011311 0.0 0.0
1.03574614944 0.0 0.0
1.03609725799 0.0 0.0
1.03566947395 0.0 0.0
1.03464071881 0.0 0.0
1.03552418583 0.0 0.0
1.03493232503 0.0 0.0
1.03432615888 0.0 0.0
1.03436394459 0.0 0.0
1.03527715334 0.0 0.0
1.03636799321 0.0 0.0
1.03536415936 0.0 0.0
1.03527060385 0.0 0.0
1.03602134036 0.0 0.0
1.03666258223 0.0 0.0
1.03688958646 0.0 0.0
1.03661866088 0.0 0.0
1.0365095201 0.0 0.0
1.03496227675 0.0 0.0
1.03442483628 0.0 0.0
1.03394430211 0.0 0.0
1.03221770851 0.0 0.0
1.02987064188 0.0 0.0
1.02651159107 0.0 0.0
1.0229901888 0.0 0.0
1.01906100376 0.0 0.0
1.01399662549 0.0 0.0
1.02136688105 0.0 0.0
1.0480593545 0.0 0.0
1.03646405909 0.0 0.0
1.0367723765 0.0 0.0
1.03729189141 0.0 0.0
1.03723611022 0.0 0.0
1.03747165247 0.0 0.0
1.03688981152 0.0 0.0
1.03752825394 0.0 0.0
1.03726308785 0.0 0.0
1.03730351746 0.0 0.0
1.03738957715 0.0 0.0
1.03726268067 0.0 0.0
1.03721562481 0.0 0.0
1.03739770309 0.0 0.0
1.03776147341 0.0 0.0
1.03768319461 0.0 0.0
1.03801188202 0.0 0.0
1.03753097222 0.0 0.0
1.03810388236 0.0 0.0
1.03816818476 0.0 0.0
1.03788397439 0.0 0.0
1.03810968904 0.0 0.0
1.03819739382 0.0 0.0
1.0373464859 0.0 0.0
1.0377305071 0.0 0.0
1.03743134809 0.0 0.0
1.0372536035 0.0 0.0
1.03731046051 0.0 0.0
1.0369542546 0.0 0.0
1.03703469574 0.0 0.0
1.03735975731 0.0 0.0
1.03733436166 0.0 0.0
1.03773808166 0.0 0.0
1.03747477118 0.0 0.0
1.03828512699 0.0 0.0
1.03827165657 0.0 0.0
1.03879064998 0.0 0.0
1.03854345798 0.0 0.0
1.03866842192 0.0 0.0
1.03878457705 0.0 0.0
1.03804436541 0.0 0.0
1.03809111669 0.0 0.0
1.03804007384 0.0 0.0
1.03763061557 0.0 0.0
1.03761202261 0.0 0.0
1.0375728021 0.0 0.0
1.03739228017 0.0 0.0
1.03751465814 0.0 0.0
1.03734577224 0.0 0.0
1.03768870708 0.0 0.0
1.03773908251 0.0 0.0
1.03785992205 0.0 0.0
1.03797288123 0.0 0.0
1.03800553606 0.0 0.0
1.03838938465 0.0 0.0
1.03838303744 0.0 0.0
1.03847032112 0.0 0.0
1.03864556222 0.0 0.0
1.03885360828 0.0 0.0
1.03889222454 0.0 0.0
1.03936085876 0.0 0.0
1.03924395547 0.0 0.0
1.03905379304 0.0 0.0
1.03969434007 0.0 0.0
1.0394932969 0.0 0.0
1.03929638187 0.0 0.0
1.03946812071 0.0 0.0
1.03894334455 0.0 0.0
1.03891715083 0.0 0.0
1.03795785021 0.0 0.0
1.03794872622 0.0 0.0
1.03746740606 0.0 0.0
1.03690073645 0.0 0.0
1.03680960464 0.0 0.0
1.03650997343 0.0 0.0
1.03626245519 0.0 0.0
1.03588484665 0.0 0.0
1.0359253678 0.0 0.0
1.03641659727 0.0 0.0
1.03578884768 0.0 0.0
1.03662945384 0.0 0.0
1.03654403634 0.0 0.0
1.03671961469 0.0 0.0
1.03709971192 0.0 0.0
1.03677317786 0.0 0.0
1.03743264758 0.0 0.0
1.0372672699 0.0 0.0
1.03734230421 0.0 0.0
1.0369243952 0.0 0.0
1.03642843991 0.0 0.0
1.03577192888 0.0 0.0
1.03488272397 0.0 0.0
1.03331835896 0.0 0.0
1.03134426816 0.0 0.0
1.02904545874 0.0 0.0
1.02548923095 0.0 0.0
1.02192420786 0.0 0.0
1.01691806847 0.0 0.0
1.01581997603 0.0 0.0
1.04738879579 0.0 0.0
1.00465415016 0.0 0.0
1.0 0.0 0.0
1.0 0.0 0.0
1.0 0.0 0.0
1.0 0.0 0.0
1.0 0.0 0.0
1.0 0.0 0.0
1.0 0.0 0.0
1.0 0.0 0.0
1.0 0.0 0.0
1.0 0.0 0.0
1.0 0.0 0.0
1.0 0.0 0.0
1.0 0.0 0.0
1.0 0.0 0.0
1.0 0.0 0.0
1.0 0.0 0.0
1.0 0.0 0.0
1.0 0.0 0.0
1.0 0.0 0.0
1.03746432346 -0.0156240202955 0.0
1.03798948869 0.000753833621728 0.0
1.03799966819 0.000957439503214 0.0
1.03777307356 0.000947342536249 0.0
1.03706093249 -0.000193645899889 0.0
1.03938668872 -0.0016948247575 0.0
1.03896550188 -0.00120620196333 0.0
1.03501946344 0.000735501939607 0.0
1.03805939824 0.00126944348194 0.0
1.0364221981 -0.000530253710243 0.0
1.0383513345 0.000710289817105 0.0
1.03923967254 -0.00216862743023 0.0
1.04009198085 0.00159261634524 0.0
1.03812725044 0.00310583118459 0.0
1.03921859148 -0.00249285345182 0.0
1.03602642191 -0.00055779207724 0.0
1.03514970665 -0.00157950963876 0.0
1.03777212306 0.00167118332099 0.0
1.04417597556 -0.00626337384636 0.0
1.03971834563 -0.00112136412632 0.0
1.03965879947 0.00127653773257 0.0
1.03586319399 0.00108731082376 0.0
1.03847850173 -0.000147149340147 0.0
1.03636381344 -0.00174504367283 0.0
1.03815258894 0.000468203548091 0.0
1.04498945096 0.000675838501301 0.0
1.04418703736 -0.00206811104214 0.0
1.03784787281 -0.00266674732984 0.0
1.03759801585 -3.17549455567e-05 0.0
1.03588224927 -0.00529834516361 0.0
1.03782883804 3.11481843363e-05 0.0
1.03753017731 0.000386177979959 0.0
1.03751256944 -0.000789196571912 0.0
1.03939454256 0.00041795224228 0.0
1.03988729898 -0.000514996861642 0.0
1.03887168185 0.000458799539768 0.0
1.03759819081 -0.000739544766257 0.0
1.03820971869 0.000317111895272 0.0
1.03711958771 0.000296153266043 0.0
1.03843050464 0.000110238427548 0.0
1.03652644725 0.000710911957788 0.0
1.04138375285 0.002090875413 0.0
1.03821040636 0.00498961449989 0.0
1.03320225196 0.00146314517535 0.0
1.03588734183 -0.000188115845289 0.0
1.0368878749 0.00061345226319 0.0
1.03747268541 -0.00151361274299 0.0
1.03765946351 0.000120937127806 0.0
1.03996276995 -0.00557769646714 0.0
1.03766208803 0.00380486876708 0.0
1.04986965701 -0.041741561981 0.0
1.03694329022 0.000323178549832 0.0
1.019596761 -0.0164192376623 0.0
1.04021306873 0.00239716330244 0.0
1.04151525968 -0.00131125881902 0.0
1.03684785419 -0.00301029643837 0.0
1.04330651293 0.000959126020533 0.0
1.05021567046 -0.0119199704687 0.0
1.04111815378 0.00183595412368 0.0
1.03696971852 9.323055628e-05 0.0
1.03694237006 -0.001174743705 0.0
1.03761405398 0.000207086731714 0.0
1.03699652983 0.00046825197547 0.0
1.02890502452 -0.00800797612377 0.0
1.03743850072 0.000111503938541 0.0
1.03721185022 -0.000370566853707 0.0
1.03959188287 0.00017894978767 0.0
1.03856747516 0.000464898665462 0.0
1.03875436981 -0.000479084809077 0.0
1.0415096881 0.0046532841466 0.0
1.03841597857 -0.00120376049859 0.0
1.04125154362 0.00291042169185 0.0
1.0413410173 -0.00603325328629 0.0
1.04105145432 0.00639566237894 0.0
1.04488916264 0.0103811001273 0.0
1.04373077063 -0.00511766948086 0.0
1.03785404948 -0.000409470606525 0.0
1.03925659689 -7.79179721701e-05 0.0
1.03393471594 -0.00119459645807 0.0
1.04487491954 -0.00387679774347 0.0
1.03781568866 0.000519387956651 0.0
1.03673335719 -0.000276599867958 0.0
1.03812384033 -0.00104137846345 0.0
1.03774891676 0.000920583516161 0.0
1.03600993507 0.000319628989623 0.0
1.03587682571 -0.000716617275821 0.0
1.03063024172 -0.00266984308552 0.0
1.02196965741 -0.0374572408291 0.0
1.03609178045 0.0008622598893 0.0
1.0560475785 0.00562838892497 0.0
1.05306917677 -0.00927101696429 0.0
1.04590360826 -0.00229862369525 0.0
1.0416575112 -0.000797616073975 0.0
1.04683783158 -0.00198667149697 0.0
1.03723389411 -0.000104502570652 0.0
1.03818311787 0.000312585248915 0.0
1.03742223343 0.00032748113469 0.0
1.03794678808 -0.000542935303058 0.0
1.03899256269 0.000284189158342 0.0
1.03584657038 -0.0022619022578 0.0
1.03750039494 -6.33850544451e-05 0.0
1.04097079754 -0.000437207549361 0.0
1.04136791231 -0.000135704249953 0.0
1.03865840925 0.000611830021348 0.0
1.03695325016 -0.00100864054507 0.0
1.03894356729 0.000598362297272 0.0
1.03690289566 0.00178667205653 0.0
1.03824285836 0.000104274502272 0.0
1.03886143414 -0.00905926911639 0.0
1.03747029597 0.000838956289174 0.0
1.0380797575 0.000470021015645 0.0
1.03547199053 -0.000148133571107 0.0
1.03846424568 0.000552228041646 0.0
1.03683932362 -0.00278268584162 0.0
1.03707749173 0.00104682803268 0.0
1.03656089751 0.000259823097696 0.0
1.03609389603 0.00172059427938 0.0
1.03828528178 0.000499852645778 0.0
1.03861882321 -9.50344615369e-05 0.0
1.03693644257 0.000483975050601 0.0
1.03790320397 -0.000428966935007 0.0
1.03956968097 -0.00475050403979 0.0
1.03677530811 -0.00129398081001 0.0
1.04054803215 0.00177336289982 0.0
1.0405704062 -0.00169333511993 0.0
1.03879882482 0.00116585221423 0.0
1.03762632777 -0.00185878954895 0.0
1.03782918295 -0.00151021466933 0.0
1.04965857483 -0.00166919941225 0.0
1.0461124629 0.00377504142606 0.0
1.04384230779 0.00377392249171 0.0
1.05836555132 -0.000113750570698 0.0
1.04905738731 -0.00500749784518 0.0
1.05424276224 -0.000309455246398 0.0
1.04146313139 -0.00574501695388 0.0
1.03894720741 0.0107267918884 0.0
1.03539884023 -0.00453215061446 0.0
1.03810851148 -7.83893784781e-05 0.0
1.05183799868 0.00592926836905 0.0
1.03688374441 0.000132369276071 0.0
1.0374480191 0.000490022589089 0.0
1.0381387262 -0.000886067192323 0.0
1.03674533597 0.000327245160001 0.0
1.03793148224 0.000154942149442 0.0
1.05921723818 -0.0113647638911 0.0
1.05413538752 0.00306967892716 0.0
1.05934048588 -0.000669200269518 0.0
1.08320650981 -0.0158104433351 0.0
1.03774744805 -0.00354944929589 0.0
1.0823073662 -0.0833822069493 0.0
1.04467842173 0.00155900595287 0.0
1.03724330433 -0.00034748965274 0.0
1.04368755625 -0.00151511757104 0.0
1.04053084692 -0.00450766931767 0.0
1.04223125051 -0.000526781315781 0.0
1.06376145975 0.00977349993837 0.0
1.06216423095 -0.0113590220815 0.0
1.03742334589 -7.1053319551e-06 0.0
1.03231907999 -0.00406900655653 0.0
1.03746082053 6.84506408306e-05 0.0
1.03776970708 0.00021832722014 0.0
1.04728942761 -0.00539021208198 0.0
1.03675109597 0.000125482972204 0.0
1.00619658403 -0.0123147494516 0.0
1.03954714576 -0.000161969327906 0.0
1.03888518105 7.29573938803e-05 0.0
1.03887400432 0.00022719699364 0.0
1.03765505815 -0.000310967353683 0.0
1.03800200136 0.000222164615327 0.0
1.03723428428 0.000122152204318 0.0
1.02206889811 -0.0081436354239 0.0
1.03743246647 -9.62301702471e-05 0.0
1.03780788622 -0.00265755082512 0.0
1.05067583813 0.00218766837994 0.0
1.05961013623 0.00558260233175 0.0
1.03598542049 2.01840476339e-05 0.0
1.0386400949 0.000365354507553 0.0
1.03930939191 -0.000453046676868 0.0
1.05026515535 -0.00327046442654 0.0
1.03755405715 0.0002093978729 0.0
1.03743185759 -0.000311781463559 0.0
1.03832024029 0.000510789386949 0.0
1.03724110712 0.000708416525409 0.0
1.0508909945 -0.0251396573772 0.0
1.03614073622 0.00525494633822 0.0
1.03899797859 0.014243638081 0.0
1.05872695467 0.00691769450659 0.0
1.05317448045 -0.0127670333945 0.0
1.03623920819 0.00031708324703 0.0
1.03651513542 3.69042920444e-06 0.0
1.03504102206 -0.00122841188799 0.0
1.03771301282 -0.000394134557203 0.0
1.03703419196 -0.000628676584237 0.0
1.03855106399 -0.000265020624547 0.0
1.03610668451 -0.000187873927934 0.0
1.05839892584 0.0131674139936 0.0
1.03958169734 -0.00336405134295 0.0
1.0376766779 0.0013366988831 0.0
1.03838946028 -0.00166167922108 0.0
1.03646248179 -0.000670947586629 0.0
1.03938475055 0.000563076394261 0.0
1.04183198513 -0.00357699618579 0.0
1.04298598247 0.0026792076057 0.0
1.03957516168 0.00104314403593 0.0
1.03725079573 0.00015695354123 0.0
1.0379508358 0.00145574760665 0.0
1.03830454993 0.000554054997975 0.0
1.03921136344 -0.00301507941307 0.0
1.0383979791 -0.00110170438491 0.0
1.03938605416 0.000721626703843 0.0
1.03755003216 0.000758266597251 0.0
1.03734375678 0.0013710338332 0.0
1.03546037797 -0.0269090870722 0.0
1.03833553641 0.000512737032763 0.0
1.04037665632 0.000189499860913 0.0
1.03633194305 0.00023112874323 0.0
1.04256900911 -0.00247625575196 0.0
1.03814972811 -0.00142748823897 0.0
1.03683943567 -0.000179337868288 0.0
1.03564009909 0.0012180575358 0.0
1.03947090247 -0.000141684219837 0.0
1.03720470519 0.000413712730742 0.0
1.02829758291 -0.0145167718993 0.0
1.03850779405 0.0015112912886 0.0
1.03864686217 0.00176187923931 0.0
1.03561998139 0.000230115038772 0.0
1.03568121997 -0.000666963688358 0.0
1.03445769388 0.00230532599501 0.0
1.03492511407 -0.000734073608986 0.0
1.0345677187 -0.000336265455842 0.0
1.03490842913 -0.00400478726826 0.0
1.03637473365 -0.00154740417556 0.0
1.03567910143 0.000830753261019 0.0
1.01616071121 -0.0571771679266 0.0
1.03639314554 0.000314965860665 0.0
1.0041827257 -0.0219695528899 0.0
1.03552801106 0.000427080587589 0.0
1.0370507827 0.000324187188764 0.0
1.03782535146 -0.000678767703652 0.0
1.03920592687 0.00190737099304 0.0
1.04831454649 -0.0228252982964 0.0
1.03830017789 -0.00293490567278 0.0
1.04377935648 -0.010499153706 0.0
1.03970600309 0.000293430520621 0.0
1.03783006419 0.000516836330065 0.0
1.03757914262 0.000698787618009 0.0
1.03407585062 -0.0103651119102 0.0
1.0373818961 0.000225303593584 0.0
1.03915159524 -0.0016016903487 0.0
1.0386096769 0.00166315311916 0.0
1.03800393461 -0.000962106578524 0.0
1.03660618038 0.00214784116479 0.0
1.03646267007 -0.00168498496356 0.0
1.03592190701 -0.000127540795122 0.0
1.03815533027 0.000841864063529 0.0
1.03652299968 -0.000606995386465 0.0
1.04299217019 0.00432025231804 0.0
1.04167402853 -0.00348259212536 0.0
1.03833205091 0.00240950220526 0.0
1.03741935928 -0.00339032441868 0.0
1.03768411984 0.000693932770876 0.0
1.03653236309 -0.000612714538932 0.0
1.03807908676 0.000564618482599 0.0
1.03913615923 -0.000734114839653 0.0
1.03983220916 0.000329865828327 0.0
1.03342267192 -0.0027559957567 0.0
1.05760353073 0.016262148859 0.0
1.05578953913 0.00415973815416 0.0
1.05599847351 0.0155222024084 0.0
1.04487423791 -0.022544269155 0.0
1.03711818522 -0.000136468579188 0.0
1.05379262818 0.025386614422 0.0
1.03769833074 0.000234214355488 0.0
1.03737820648 0.000170155775944 0.0
1.03764591873 -0.000210097236658 0.0
1.03856159162 5.23453556647e-05 0.0
1.03727301578 0.000293945138277 0.0
1.03803405997 2.01610231085e-05 0.0
1.03451567139 -0.000953683124142 0.0
1.03533614287 4.23501899092e-05 0.0
1.06098750016 -0.00960168428638 0.0
1.0514613296 0.00133165683052 0.0
1.0584804818 0.016914241144 0.0
1.03803054117 0.000182458455487 0.0
1.05085536552 0.00209356388394 0.0
1.04908619404 0.00665701788699 0.0
1.04201273164 0.00456042853567 0.0
1.05226111177 0.0150433272377 0.0
1.04533425292 -0.0229943239469 0.0
1.03620916229 -5.94226479523e-05 0.0
1.03030599648 -0.0138549287485 0.0
1.04511694302 0.00797386592575 0.0
1.04214346241 -0.0143086352418 0.0
1.05438756556 0.0152222051117 0.0
1.08960397607 -0.047581254026 0.0
1.03886532875 0.000190346242512 0.0
1.0376991296 -0.000336067592258 0.0
1.03786634471 0.000379096258253 0.0
1.04139436823 0.00283446007261 0.0
1.0397122559 -0.0042100328815 0.0
1.10967515684 0.00883212360213 0.0
1.0943357982 -0.00613175739636 0.0
1.04111184657 -0.00440081555182 0.0
1.03839496196 -0.000560570156739 0.0
1.03881662194 8.73207783789e-06 0.0
1.0426139278 -0.000585466326707 0.0
1.03713963308 7.49116451982e-05 0.0
1.02690185779 -0.00458764615199 0.0
1.03562962382 0.00198210159296 0.0
1.03675892407 0.000169209798814 0.0
1.03762911525 0.000142524519122 0.0
1.02413020125 -0.0229128600939 0.0
1.0367968391 0.000639565511692 0.0
1.03767915826 -0.000153274777128 0.0
1.04808459236 -0.00627491763628 0.0
1.0352202775 0.000582958202209 0.0
1.03600370893 0.000222912142454 0.0
1.03635989962 -0.000293779515145 0.0
1.03695825794 0.000157079348991 0.0
1.01562550264 -0.00731327259474 0.0
1.03391741761 -0.00202008362602 0.0
1.03727103713 3.5893201055e-05 0.0
1.024552481 -0.00266681642541 0.0
1.03684513165 -0.000893047325547 0.0
1.04054418459 -0.00128044536068 0.0
1.07991260347 0.000220266698704 0.0
1.05012432539 -0.00894746667068 0.0
1.03981626125 -0.000179590674355 0.0
1.03916897923 -5.89045479927e-05 0.0
1.0372512282 -0.000517242489913 0.0
1.03858597456 0.000409475335002 0.0
1.03610121545 -0.000527622090996 0.0
1.03851151903 0.00105972421442 0.0
1.0236352909 0.00491426549024 0.0
1.03924312913 -0.0036011610889 0.0
1.0401474047 0.00296003816369 0.0
1.03837963716 0.00196865829906 0.0
1.09914744289 -0.00309808647349 0.0
1.03802806128 0.000341551856519 0.0
1.0488337143 0.00978859156598 0.0
1.0588592817 -0.0141727595979 0.0
1.05270103716 0.00790713622891 0.0