# vtk DataFile Version 2.0
2D Simulation Python
ASCII
DATASET UNSTRUCTURED_GRID
FIELD FieldData 1
NODES 1 2 int
18689 9070

POINTS 18689 double
0.0 1.0 0.0
1.85 1.0 0.0
2.15 1.0 0.0
2.5312 0.9845 0.0
2.804 0.8597 0.0
3.1897 0.7164 0.0
3.4784 0.635 0.0
3.8514 0.5613 0.0
4.1492 0.5258 0.0
4.5167 0.5049 0.0
4.8167 0.5003 0.0
5.1833 0.5003 0.0
5.4833 0.5049 0.0
5.8508 0.5258 0.0
6.1486 0.5613 0.0
6.5216 0.635 0.0
6.8103 0.7164 0.0
7.196 0.8597 0.0
7.4688 0.9845 0.0
7.85 1.0 0.0
8.15 1.0 0.0
10.0 1.0 0.0
2.0 0.85 0.0
2.604294 0.783787 0.0
3.292593 0.528828 0.0
3.982247 0.392281 0.0
4.6644 0.351597 0.0
5.3356 0.351597 0.0
6.017753 0.392281 0.0
6.707407 0.528828 0.0
7.395706 0.783787 0.0
8.0 0.85 0.0
0.0 0.0 0.0
10.0 0.0 0.0
0.0734589301566 1.0 0.0
0.145167743517 1.0 0.0
0.21516812927 1.0 0.0
0.28350079013 1.0 0.0
0.350205456584 1.0 0.0
0.415320916456 1.0 0.0
0.478885034081 1.0 0.0
0.54093476431 1.0 0.0
0.60150619228 1.0 0.0
0.660634531563 1.0 0.0
0.718354166673 1.0 0.0
0.774698663768 1.0 0.0
0.829700784833 1.0 0.0
0.883392494487 1.0 0.0
0.935805031174 1.0 0.0
0.986968858295 1.0 0.0
1.03691373552 1.0 0.0
1.08566869896 1.0 0.0
1.13326210557 1.0 0.0
1.17972162015 1.0 0.0
1.22507424471 1.0 0.0
1.26934637514 1.0 0.0
1.31256375277 1.0 0.0
1.35475147821 1.0 0.0
1.39593411269 1.0 0.0
1.43613558907 1.0 0.0
1.47537928256 1.0 0.0
1.51368801606 1.0 0.0
1.55108407403 1.0 0.0
1.58758918129 1.0 0.0
1.62322456599 1.0 0.0
1.65801095744 1.0 0.0
1.69196857852 1.0 0.0
1.72511717947 1.0 0.0
1.75747602403 1.0 0.0
1.78906393965 1.0 0.0
1.81989928574 1.0 0.0
0.0367294650783 1.0 0.0
0.109313336837 1.0 0.0
0.180167936393 1.0 0.0
0.2493344597 1.0 0.0
0.316853123357 1.0 0.0
0.38276318652 1.0 0.0
0.447102975268 1.0 0.0
0.509909899196 1.0 0.0
0.571220478295 1.0 0.0
0.631070361921 1.0 0.0
0.689494349118 1.0 0.0
0.74652641522 1.0 0.0
0.8021997243 1.0 0.0
0.85654663966 1.0 0.0
0.90959876283 1.0 0.0
0.961386944735 1.0 0.0
1.01194129691 1.0 0.0
1.06129121724 1.0 0.0
1.10946540227 1.0 0.0
1.15649186286 1.0 0.0
1.20239793243 1.0 0.0
1.24721030993 1.0 0.0
1.29095506396 1.0 0.0
1.33365761549 1.0 0.0
1.37534279545 1.0 0.0
1.41603485088 1.0 0.0
1.45575743581 1.0 0.0
1.49453364931 1.0 0.0
1.53238604505 1.0 0.0
1.56933662766 1.0 0.0
1.60540687364 1.0 0.0
1.64061776172 1.0 0.0
1.67498976798 1.0 0.0
1.70854287899 1.0 0.0
1.74129660175 1.0 0.0
1.77326998184 1.0 0.0
1.8044816127 1.0 0.0
1.83494964287 1.0 0.0
2.17932307692 0.998807692308 0.0
2.20864615385 0.997615384615 0.0
2.23796923077 0.996423076923 0.0
2.26729230769 0.995230769231 0.0
2.29661538462 0.994038461538 0.0
2.32593846154 0.992846153846 0.0
2.35526153846 0.991653846154 0.0
2.38458461538 0.990461538462 0.0
2.41390769231 0.989269230769 0.0
2.44323076923 0.988076923077 0.0
2.47255384615 0.986884615385 0.0
2.50187692308 0.985692307692 0.0
2.16466153846 0.999403846154 0.0
2.19398461538 0.998211538462 0.0
2.22330769231 0.997019230769 0.0
2.25263076923 0.995826923077 0.0
2.28195384615 0.994634615385 0.0
2.31127692308 0.993442307692 0.0
2.3406 0.99225 0.0
2.36992307692 0.991057692308 0.0
2.39924615385 0.989865384615 0.0
2.42856923077 0.988673076923 0.0
2.45789230769 0.987480769231 0.0
2.48721538462 0.986288461538 0.0
2.51653846154 0.985096153846 0.0
2.83155 0.849464285714 0.0
2.8591 0.839228571429 0.0
2.88665 0.828992857143 0.0
2.9142 0.818757142857 0.0
2.94175 0.808521428572 0.0
2.9693 0.798285714286 0.0
2.99685 0.78805 0.0
3.0244 0.777814285714 0.0
3.05195 0.767578571429 0.0
3.0795 0.757342857143 0.0
3.10705 0.747107142857 0.0
3.1346 0.736871428571 0.0
3.16215 0.726635714286 0.0
2.817775 0.854582142857 0.0
2.845325 0.844346428571 0.0
2.872875 0.834110714286 0.0
2.900425 0.823875 0.0
2.927975 0.813639285714 0.0
2.955525 0.803403571429 0.0
2.983075 0.793167857143 0.0
3.010625 0.782932142857 0.0
3.038175 0.772696428572 0.0
3.065725 0.762460714286 0.0
3.093275 0.752225 0.0
3.120825 0.741989285714 0.0
3.148375 0.731753571429 0.0
3.175925 0.721517857143 0.0
3.50709230769 0.629330769231 0.0
3.53578461538 0.623661538462 0.0
3.56447692308 0.617992307692 0.0
3.59316923077 0.612323076923 0.0
3.62186153846 0.606653846154 0.0
3.65055384615 0.600984615385 0.0
3.67924615385 0.595315384615 0.0
3.70793846154 0.589646153846 0.0
3.73663076923 0.583976923077 0.0
3.76532307692 0.578307692308 0.0
3.79401538462 0.572638461538 0.0
3.82270769231 0.566969230769 0.0
3.49274615385 0.632165384615 0.0
3.52143846154 0.626496153846 0.0
3.55013076923 0.620826923077 0.0
3.57882307692 0.615157692308 0.0
3.60751538462 0.609488461539 0.0
3.63620769231 0.603819230769 0.0
3.6649 0.59815 0.0
3.69359230769 0.592480769231 0.0
3.72228461538 0.586811538462 0.0
3.75097692308 0.581142307692 0.0
3.77966923077 0.575473076923 0.0
3.80836153846 0.569803846154 0.0
3.83705384615 0.564134615385 0.0
4.17746923077 0.524192307692 0.0
4.20573846154 0.522584615385 0.0
4.23400769231 0.520976923077 0.0
4.26227692308 0.519369230769 0.0
4.29054615385 0.517761538462 0.0
4.31881538461 0.516153846154 0.0
4.34708461538 0.514546153846 0.0
4.37535384615 0.512938461538 0.0
4.40362307692 0.511330769231 0.0
4.43189230769 0.509723076923 0.0
4.46016153846 0.508115384615 0.0
4.48843076923 0.506507692308 0.0
4.16333461538 0.524996153846 0.0
4.19160384615 0.523388461538 0.0
4.21987307692 0.521780769231 0.0
4.24814230769 0.520173076923 0.0
4.27641153846 0.518565384615 0.0
4.30468076923 0.516957692308 0.0
4.33295 0.51535 0.0
4.36121923077 0.513742307692 0.0
4.38948846154 0.512134615385 0.0
4.41775769231 0.510526923077 0.0
4.44602692308 0.508919230769 0.0
4.47429615385 0.507311538462 0.0
4.50256538462 0.505703846154 0.0
4.8449 0.5003 0.0
4.8731 0.5003 0.0
4.9013 0.5003 0.0
4.9295 0.5003 0.0
4.9577 0.5003 0.0
4.9859 0.5003 0.0
5.0141 0.5003 0.0
5.0423 0.5003 0.0
5.0705 0.5003 0.0
5.0987 0.5003 0.0
5.1269 0.5003 0.0
5.1551 0.5003 0.0
4.8308 0.5003 0.0
4.859 0.5003 0.0
4.8872 0.5003 0.0
4.9154 0.5003 0.0
4.9436 0.5003 0.0
4.9718 0.5003 0.0
5.0 0.5003 0.0
5.0282 0.5003 0.0
5.0564 0.5003 0.0
5.0846 0.5003 0.0
5.1128 0.5003 0.0
5.141 0.5003 0.0
5.1692 0.5003 0.0
5.51156923077 0.506507692308 0.0
5.53983846154 0.508115384615 0.0
5.56810769231 0.509723076923 0.0
5.59637692308 0.511330769231 0.0
5.62464615385 0.512938461538 0.0
5.65291538461 0.514546153846 0.0
5.68118461538 0.516153846154 0.0
5.70945384615 0.517761538462 0.0
5.73772307692 0.519369230769 0.0
5.76599230769 0.520976923077 0.0
5.79426153846 0.522584615385 0.0
5.82253076923 0.524192307692 0.0
5.49743461538 0.505703846154 0.0
5.52570384615 0.507311538462 0.0
5.55397307692 0.508919230769 0.0
5.58224230769 0.510526923077 0.0
5.61051153846 0.512134615385 0.0
5.63878076923 0.513742307692 0.0
5.66705 0.51535 0.0
5.69531923077 0.516957692308 0.0
5.72358846154 0.518565384615 0.0
5.75185769231 0.520173076923 0.0
5.78012692308 0.521780769231 0.0
5.80839615385 0.523388461538 0.0
5.83666538462 0.524996153846 0.0
6.17729230769 0.566969230769 0.0
6.20598461538 0.572638461538 0.0
6.23467692308 0.578307692308 0.0
6.26336923077 0.583976923077 0.0
6.29206153846 0.589646153846 0.0
6.32075384615 0.595315384615 0.0
6.34944615385 0.600984615385 0.0
6.37813846154 0.606653846154 0.0
6.40683076923 0.612323076923 0.0
6.43552307692 0.617992307692 0.0
6.46421538462 0.623661538462 0.0
6.49290769231 0.629330769231 0.0
6.16294615385 0.564134615385 0.0
6.19163846154 0.569803846154 0.0
6.22033076923 0.575473076923 0.0
6.24902307692 0.581142307692 0.0
6.27771538462 0.586811538461 0.0
6.30640769231 0.592480769231 0.0
6.3351 0.59815 0.0
6.36379230769 0.603819230769 0.0
6.39248461538 0.609488461538 0.0
6.42117692308 0.615157692308 0.0
6.44986923077 0.620826923077 0.0
6.47856153846 0.626496153846 0.0
6.50725384615 0.632165384615 0.0
6.83785 0.726635714286 0.0
6.8654 0.736871428571 0.0
6.89295 0.747107142857 0.0
6.9205 0.757342857143 0.0
6.94805 0.767578571429 0.0
6.9756 0.777814285714 0.0
7.00315 0.78805 0.0
7.0307 0.798285714286 0.0
7.05825 0.808521428571 0.0
7.0858 0.818757142857 0.0
7.11335 0.828992857143 0.0
7.1409 0.839228571429 0.0
7.16845 0.849464285714 0.0
6.824075 0.721517857143 0.0
6.851625 0.731753571429 0.0
6.879175 0.741989285714 0.0
6.906725 0.752225 0.0
6.934275 0.762460714286 0.0
6.961825 0.772696428571 0.0
6.989375 0.782932142857 0.0
7.016925 0.793167857143 0.0
7.044475 0.803403571429 0.0
7.072025 0.813639285714 0.0
7.099575 0.823875 0.0
7.127125 0.834110714286 0.0
7.154675 0.844346428571 0.0
7.182225 0.854582142857 0.0
7.49812307692 0.985692307692 0.0
7.52744615385 0.986884615385 0.0
7.55676923077 0.988076923077 0.0
7.58609230769 0.989269230769 0.0
7.61541538461 0.990461538462 0.0
7.64473846154 0.991653846154 0.0
7.67406153846 0.992846153846 0.0
7.70338461538 0.994038461538 0.0
7.73270769231 0.995230769231 0.0
7.76203076923 0.996423076923 0.0
7.79135384615 0.997615384615 0.0
7.82067692308 0.998807692308 0.0
7.48346153846 0.985096153846 0.0
7.51278461538 0.986288461538 0.0
7.54210769231 0.987480769231 0.0
7.57143076923 0.988673076923 0.0
7.60075384615 0.989865384615 0.0
7.63007692308 0.991057692308 0.0
7.6594 0.99225 0.0
7.68872307692 0.993442307692 0.0
7.71804615385 0.994634615385 0.0
7.74736923077 0.995826923077 0.0
7.77669230769 0.997019230769 0.0
7.80601538462 0.998211538462 0.0
7.83533846154 0.999403846154 0.0
8.17983870968 1.0 0.0
8.20967741936 1.0 0.0
8.23951612903 1.0 0.0
8.26935483871 1.0 0.0
8.29919354839 1.0 0.0
8.32903225806 1.0 0.0
8.35887096774 1.0 0.0
8.38870967742 1.0 0.0
8.4185483871 1.0 0.0
8.44838709677 1.0 0.0
8.47822580645 1.0 0.0
8.50806451613 1.0 0.0
8.53790322581 1.0 0.0
8.56774193548 1.0 0.0
8.59758064516 1.0 0.0
8.62741935484 1.0 0.0
8.65725806452 1.0 0.0
8.68709677419 1.0 0.0
8.71693548387 1.0 0.0
8.74677419355 1.0 0.0
8.77661290323 1.0 0.0
8.8064516129 1.0 0.0
8.83629032258 1.0 0.0
8.86612903226 1.0 0.0
8.89596774194 1.0 0.0
8.92580645161 1.0 0.0
8.95564516129 1.0 0.0
8.98548387097 1.0 0.0
9.01532258065 1.0 0.0
9.04516129032 1.0 0.0
9.075 1.0 0.0
9.10483870968 1.0 0.0
9.13467741936 1.0 0.0
9.16451612903 1.0 0.0
9.19435483871 1.0 0.0
9.22419354839 1.0 0.0
9.25403225807 1.0 0.0
9.28387096774 1.0 0.0
9.31370967742 1.0 0.0
[...]
POINT_DATA 18689
VECTORS vector double
0.0 0.0 0.0
0.0 0.0 0.0
0.0 0.0 0.0
0.0 0.0 0.0
0.0 0.0 0.0
0.0 0.0 0.0
0.0 0.0 0.0
0.0 0.0 0.0
0.0 0.0 0.0
0.0 0.0 0.0
0.0 0.0 0.0
0.0 0.0 0.0
0.0 0.0 0.0
0.0 0.0 0.0
0.0 0.0 0.0
0.0 0.0 0.0
0.0 0.0 0.0
0.0 0.0 0.0
0.0 0.0 0.0
0.0 0.0 0.0
0.0 0.0 0.0
0.0 0.0 0.0
0.0 0.0 0.0
0.0 0.0 0.0
0.0 0.0 0.0
0.0 0.0 0.0
0.0 0.0 0.0
0.0 0.0 0.0
0.0 0.0 0.0
0.0 0.0 0.0
0.0 0.0 0.0
0.0 0.0 0.0
1.5 0.0 0.0
1.33008625377 0.0 0.0
0.0 0.0 0.0
0.0 0.0 0.0
0.0 0.0 0.0
0.0 0.0 0.0
0.0 0.0 0.0
0.0 0.0 0.0
0.0 0.0 0.0
0.0 0.0 0.0
0.0 0.0 0.0
0.0 0.0 0.0
0.0 0.0 0.0
0.0 0.0 0.0
0.0 0.0 0.0
0.0 0.0 0.0
0.0 0.0 0.0
0.0 0.0 0.0
0.0 0.0 0.0
0.0 0.0 0.0
0.0 0.0 0.0
0.0 0.0 0.0
0.0 0.0 0.0
0.0 0.0 0.0
0.0 0.0 0.0
0.0 0.0 0.0
0.0 0.0 0.0
0.0 0.0 0.0
0.0 0.0 0.0
0.0 0.0 0.0
0.0 0.0 0.0
0.0 0.0 0.0
0.0 0.0 0.0
0.0 0.0 0.0
0.0 0.0 0.0
0.0 0.0 0.0
0.0 0.0 0.0
0.0 0.0 0.0
0.0 0.0 0.0
0.0 0.0 0.0
0.0 0.0 0.0
0.0 0.0 0.0
0.0 0.0 0.0
0.0 0.0 0.0
0.0 0.0 0.0
0.0 0.0 0.0
0.0 0.0 0.0
0.0 0.0 0.0
0.0 0.0 0.0
0.0 0.0 0.0
0.0 0.0 0.0
0.0 0.0 0.0
0.0 0.0 0.0
0.0 0.0 0.0
0.0 0.0 0.0
0.0 0.0 0.0
0.0 0.0 0.0
0.0 0.0 0.0
0.0 0.0 0.0
0.0 0.0 0.0
0.0 0.0 0.0
0.0 0.0 0.0
0.0 0.0 0.0
0.0 0.0 0.0
0.0 0.0 0.0
0.0 0.0 0.0
0.0 0.0 0.0
0.0 0.0 0.0
0.0 0.0 0.0
0.0 0.0 0.0
0.0 0.0 0.0
0.0 0.0 0.0
0.0 0.0 0.0
0.0 0.0 0.0
0.0 0.0 0.0
0.0 0.0 0.0
0.0 0.0 0.0
0.0 0.0 0.0
0.0 0.0 0.0
0.0 0.0 0.0
0.0 0.0 0.0
0.0 0.0 0.0
0.0 0.0 0.0
0.0 0.0 0.0
0.0 0.0 0.0
0.0 0.0 0.0
0.0 0.0 0.0
0.0 0.0 0.0
0.0 0.0 0.0
0.0 0.0 0.0
0.0 0.0 0.0
0.0 0.0 0.0
0.0 0.0 0.0
0.0 0.0 0.0
0.0 0.0 0.0
0.0 0.0 0.0
0.0 0.0 0.0
0.0 0.0 0.0
0.0 0.0 0.0
0.0 0.0 0.0
0.0 0.0 0.0
0.0 0.0 0.0
0.0 0.0 0.0
0.0 0.0 0.0
0.0 0.0 0.0
0.0 0.0 0.0
0.0 0.0 0.0
0.0 0.0 0.0
0.0 0.0 0.0
0.0 0.0 0.0
0.0 0.0 0.0
0.0 0.0 0.0
0.0 0.0 0.0
0.0 0.0 0.0
0.0 0.0 0.0
0.0 0.0 0.0
0.0 0.0 0.0
0.0 0.0 0.0
0.0 0.0 0.0
0.0 0.0 0.0
0.0 0.0 0.0
0.0 0.0 0.0
0.0 0.0 0.0
0.0 0.0 0.0
0.0 0.0 0.0
0.0 0.0 0.0
0.0 0.0 0.0
0.0 0.0 0.0
0.0 0.0 0.0
0.0 0.0 0.0
0.0 0.0 0.0
0.0 0.0 0.0
0.0 0.0 0.0
0.0 0.0 0.0
0.0 0.0 0.0
0.0 0.0 0.0
0.0 0.0 0.0
0.0 0.0 0.0
0.0 0.0 0.0
0.0 0.0 0.0
0.0 0.0 0.0
0.0 0.0 0.0
0.0 0.0 0.0
0.0 0.0 0.0
0.0 0.0 0.0
0.0 0.0 0.0
0.0 0.0 0.0
0.0 0.0 0.0
0.0 0.0 0.0
0.0 0.0 0.0
0.0 0.0 0.0
0.0 0.0 0.0
0.0 0.0 0.0
0.0 0.0 0.0
0.0 0.0 0.0
0.0 0.0 0.0
0.0 0.0 0.0
0.0 0.0 0.0
0.0 0.0 0.0
0.0 0.0 0.0
0.0 0.0 0.0
0.0 0.0 0.0
0.0 0.0 0.0
0.0 0.0 0.0
0.0 0.0 0.0
0.0 0.0 0.0
0.0 0.0 0.0
0.0 0.0 0.0
0.0 0.0 0.0
0.0 0.0 0.0
0.0 0.0 0.0
0.0 0.0 0.0
0.0 0.0 0.0
0.0 0.0 0.0
0.0 0.0 0.0
0.0 0.0 0.0
0.0 0.0 0.0
0.0 0.0 0.0
0.0 0.0 0.0
0.0 0.0 0.0
0.0 0.0 0.0
0.0 0.0 0.0
0.0 0.0 0.0
0.0 0.0 0.0
0.0 0.0 0.0
0.0 0.0 0.0
0.0 0.0 0.0
0.0 0.0 0.0
0.0 0.0 0.0
0.0 0.0 0.0
0.0 0.0 0.0
0.0 0.0 0.0
0.0 0.0 0.0
0.0 0.0 0.0
0.0 0.0 0.0
0.0 0.0 0.0
0.0 0.0 0.0
0.0 0.0 0.0
0.0 0.0 0.0
0.0 0.0 0.0
0.0 0.0 0.0
0.0 0.0 0.0
0.0 0.0 0.0
0.0 0.0 0.0
0.0 0.0 0.0
0.0 0.0 0.0
0.0 0.0 0.0
0.0 0.0 0.0
0.0 0.0 0.0
0.0 0.0 0.0
0.0 0.0 0.0
0.0 0.0 0.0
0.0 0.0 0.0
0.0 0.0 0.0
0.0 0.0 0.0
0.0 0.0 0.0
0.0 0.0 0.0
0.0 0.0 0.0
0.0 0.0 0.0
0.0 0.0 0.0
0.0 0.0 0.0
0.0 0.0 0.0
0.0 0.0 0.0
0.0 0.0 0.0
0.0 0.0 0.0
0.0 0.0 0.0
0.0 0.0 0.0
0.0 0.0 0.0
0.0 0.0 0.0
0.0 0.0 0.0
0.0 0.0 0.0
0.0 0.0 0.0
0.0 0.0 0.0
0.0 0.0 0.0
0.0 0.0 0.0
0.0 0.0 0.0
0.0 0.0 0.0
0.0 0.0 0.0
0.0 0.0 0.0
0.0 0.0 0.0
0.0 0.0 0.0
0.0 0.0 0.0
0.0 0.0 0.0
0.0 0.0 0.0
0.0 0.0 0.0
0.0 0.0 0.0
0.0 0.0 0.0
0.0 0.0 0.0
0.0 0.0 0.0
0.0 0.0 0.0
0.0 0.0 0.0
0.0 0.0 0.0
0.0 0.0 0.0
0.0 0.0 0.0
0.0 0.0 0.0
0.0 0.0 0.0
0.0 0.0 0.0
0.0 0.0 0.0
0.0 0.0 0.0
0.0 0.0 0.0
0.0 0.0 0.0
0.0 0.0 0.0
0.0 0.0 0.0
0.0 0.0 0.0
0.0 0.0 0.0
0.0 0.0 0.0
0.0 0.0 0.0
0.0 0.0 0.0
0.0 0.0 0.0
0.0 0.0 0.0
0.0 0.0 0.0
0.0 0.0 0.0
0.0 0.0 0.0
0.0 0.0 0.0
0.0 0.0 0.0
0.0 0.0 0.0
0.0 0.0 0.0
0.0 0.0 0.0
0.0 0.0 0.0
0.0 0.0 0.0
0.0 0.0 0.0
0.0 0.0 0.0
0.0 0.0 0.0
0.0 0.0 0.0
0.0 0.0 0.0
0.0 0.0 0.0
0.0 0.0 0.0
0.0 0.0 0.0
0.0 0.0 0.0
0.0 0.0 0.0
0.0 0.0 0.0
0.0 0.0 0.0
0.0 0.0 0.0
0.0 0.0 0.0
0.0 0.0 0.0
0.0 0.0 0.0
0.0 0.0 0.0
0.0 0.0 0.0
0.0 0.0 0.0
0.0 0.0 0.0
0.0 0.0 0.0
0.0 0.0 0.0
0.0 0.0 0.0
0.0 0.0 0.0
0.0 0.0 0.0
0.0 0.0 0.0
0.0 0.0 0.0
0.0 0.0 0.0
0.0 0.0 0.0
0.0 0.0 0.0
0.0 0.0 0.0
0.0 0.0 0.0
0.0 0.0 0.0
0.0 0.0 0.0
0.0 0.0 0.0
0.0 0.0 0.0
0.0 0.0 0.0
0.0 0.0 0.0
0.0 0.0 0.0
0.0 0.0 0.0
0.0 0.0 0.0
0.0 0.0 0.0
0.0 0.0 0.0
0.0 0.0 0.0
0.0 0.0 0.0
0.0 0.0 0.0
0.0 0.0 0.0
0.0 0.0 0.0
0.0 0.0 0.0
0.0 0.0 0.0
0.0 0.0 0.0
0.0 0.0 0.0
0.0 0.0 0.0
0.0 0.0 0.0
0.0 0.0 0.0
0.0 0.0 0.0
0.0 0.0 0.0
0.0 0.0 0.0
0.0 0.0 0.0
0.0 0.0 0.0
0.0 0.0 0.0
0.0 0.0 0.0
0.0 0.0 0.0
0.0 0.0 0.0
0.0 0.0 0.0
0.0 0.0 0.0
0.0 0.0 0.0
0.0 0.0 0.0
0.0 0.0 0.0
0.0 0.0 0.0
0.0 0.0 0.0
0.0 0.0 0.0
0.0 0.0 0.0
0.0 0.0 0.0
0.0 0.0 0.0
0.0 0.0 0.0
0.0 0.0 0.0
0.0 0.0 0.0
0.0 0.0 0.0
0.0 0.0 0.0
0.0 0.0 0.0
0.0 0.0 0.0
0.0 0.0 0.0
0.0 0.0 0.0
0.0 0.0 0.0
0.0 0.0 0.0
0.0 0.0 0.0
0.0 0.0 0.0
0.0 0.0 0.0
0.0 0.0 0.0
0.0 0.0 0.0
0.0 0.0 0.0
0.0 0.0 0.0
0.0 0.0 0.0
0.0 0.0 0.0
0.0 0.0 0.0
0.0 0.0 0.0
0.0 0.0 0.0
0.0 0.0 0.0
0.0 0.0 0.0
0.0 0.0 0.0
0.0 0.0 0.0
0.0 0.0 0.0
0.0 0.0 0.0
0.0 0.0 0.0
0.0 0.0 0.0
0.0 0.0 0.0
0.0 0.0 0.0
0.0 0.0 0.0
0.0 0.0 0.0
0.0 0.0 0.0
0.0 0.0 0.0
0.0 0.0 0.0
0.0 0.0 0.0
0.0 0.0 0.0
0.0 0.0 0.0
0.0 0.0 0.0
0.0 0.0 0.0
0.0 0.0 0.0
0.0 0.0 0.0
0.0 0.0 0.0
0.0 0.0 0.0
0.0 0.0 0.0
0.0 0.0 0.0
0.0 0.0 0.0
0.0 0.0 0.0
0.0 0.0 0.0
0.0 0.0 0.0
0.0 0.0 0.0
0.0 0.0 0.0
0.0 0.0 0.0
0.0 0.0 0.0
0.0 0.0 0.0
0.0 0.0 0.0
0.0 0.0 0.0
0.0 0.0 0.0
0.0 0.0 0.0
0.0 0.0 0.0
0.0 0.0 0.0
0.0 0.0 0.0
0.0 0.0 0.0
0.0 0.0 0.0
0.0 0.0 0.0
0.0 0.0 0.0
0.0 0.0 0.0
0.0 0.0 0.0
0.0 0.0 0.0
0.0 0.0 0.0
0.0 0.0 0.0
0.0 0.0 0.0
0.0 0.0 0.0
0.0 0.0 0.0
0.0 0.0 0.0
0.0 0.0 0.0
0.0 0.0 0.0
0.0 0.0 0.0
0.0 0.0 0.0
0.0 0.0 0.0
0.0 0.0 0.0
0.0 0.0 0.0
0.0 0.0 0.0
0.0 0.0 0.0
0.0 0.0 0.0
0.0 0.0 0.0
0.0 0.0 0.0
0.0 0.0 0.0
0.0 0.0 0.0
0.0 0.0 0.0
0.0 0.0 0.0
0.0 0.0 0.0
0.0 0.0 0.0
0.0 0.0 0.0
0.0 0.0 0.0
0.0 0.0 0.0
0.0 0.0 0.0
0.0 0.0 0.0
0.0 0.0 0.0
0.0 0.0 0.0
0.0 0.0 0.0
0.0 0.0 0.0
0.0 0.0 0.0
0.0 0.0 0.0
0.0 0.0 0.0
0.0 0.0 0.0
0.0 0.0 0.0
0.0 0.0 0.0
0.0 0.0 0.0
0.0 0.0 0.0
0.0 0.0 0.0
0.0 0.0 0.0
0.0 0.0 0.0
0.0 0.0 0.0
0.0 0.0 0.0
0.0 0.0 0.0
0.0 0.0 0.0
0.0 0.0 0.0
0.0 0.0 0.0
0.0 0.0 0.0
0.0 0.0 0.0
0.0 0.0 0.0
0.0 0.0 0.0
0.0 0.0 0.0
0.0 0.0 0.0
0.0 0.0 0.0
0.0 0.0 0.0
0.0 0.0 0.0
0.0 0.0 0.0
0.0 0.0 0.0
0.0 0.0 0.0
0.0 0.0 0.0
0.0 0.0 0.0
0.0 0.0 0.0
0.0 0.0 0.0
0.0 0.0 0.0
0.0 0.0 0.0
0.0 0.0 0.0
0.0 0.0 0.0
0.0 0.0 0.0
0.0 0.0 0.0
0.0 0.0 0.0
0.0 0.0 0.0
0.0 0.0 0.0
0.0 0.0 0.0
0.0 0.0 0.0
0.0 0.0 0.0
0.0 0.0 0.0
0.0 0.0 0.0
0.0 0.0 0.0
0.0 0.0 0.0
0.0 0.0 0.0
0.0 0.0 0.0
0.0 0.0 0.0
0.0 0.0 0.0
0.0 0.0 0.0
0.0 0.0 0.0
0.0 0.0 0.0
0.0 0.0 0.0
0.0 0.0 0.0
0.0 0.0 0.0
0.0 0.0 0.0
0.0 0.0 0.0
0.0 0.0 0.0
0.0 0.0 0.0
0.0 0.0 0.0
0.0 0.0 0.0
0.0 0.0 0.0
0.0 0.0 0.0
0.0 0.0 0.0
0.0 0.0 0.0
0.0 0.0 0.0
0.0 0.0 0.0
0.0 0.0 0.0
0.0 0.0 0.0
0.0 0.0 0.0
0.0 0.0 0.0
0.0 0.0 0.0
0.0 0.0 0.0
0.0 0.0 0.0
0.0 0.0 0.0
0.0 0.0 0.0
0.0 0.0 0.0
0.0 0.0 0.0
0.0 0.0 0.0
0.0 0.0 0.0
0.0 0.0 0.0
0.0 0.0 0.0
0.0 0.0 0.0
0.0 0.0 0.0
0.0 0.0 0.0
0.0 0.0 0.0
0.0 0.0 0.0
0.0 0.0 0.0
0.0 0.0 0.0
0.0 0.0 0.0
0.0 0.0 0.0
0.0 0.0 0.0
0.0 0.0 0.0
0.0 0.0 0.0
0.0 0.0 0.0
0.0 0.0 0.0
0.0 0.0 0.0
0.0 0.0 0.0
0.0 0.0 0.0
0.0 0.0 0.0
0.0 0.0 0.0
0.0 0.0 0.0
0.0 0.0 0.0
0.0 0.0 0.0
0.0 0.0 0.0
0.0 0.0 0.0
0.0 0.0 0.0
0.0 0.0 0.0
0.0 0.0 0.0
0.0 0.0 0.0
0.0 0.0 0.0
0.0 0.0 0.0
0.0 0.0 0.0
0.0 0.0 0.0
0.0 0.0 0.0
0.0 0.0 0.0
0.0 0.0 0.0
0.0 0.0 0.0
0.0 0.0 0.0
0.0 0.0 0.0
0.0 0.0 0.0
0.0 0.0 0.0
0.0 0.0 0.0
0.0 0.0 0.0
0.0 0.0 0.0
0.0 0.0 0.0
0.0 0.0 0.0
0.0 0.0 0.0
0.0 0.0 0.0
0.0 0.0 0.0
0.0 0.0 0.0
0.0 0.0 0.0
0.0 0.0 0.0
0.0 0.0 0.0
0.0 0.0 0.0
0.0 0.0 0.0
0.0 0.0 0.0
0.0 0.0 0.0
0.0 0.0 0.0
0.0 0.0 0.0
0.0 0.0 0.0
0.0 0.0 0.0
0.0 0.0 0.0
0.0 0.0 0.0
0.0 0.0 0.0
0.0 0.0 0.0
0.0 0.0 0.0
0.0 0.0 0.0
0.0 0.0 0.0
0.0 0.0 0.0
0.0 0.0 0.0
0.0 0.0 0.0
0.0 0.0 0.0
0.0 0.0 0.0
0.0 0.0 0.0
0.0 0.0 0.0
0.0 0.0 0.0
0.0 0.0 0.0
0.0 0.0 0.0
0.0 0.0 0.0
0.0 0.0 0.0
0.0 0.0 0.0
0.0 0.0 0.0
0.0 0.0 0.0
0.0 0.0 0.0
0.0 0.0 0.0
0.0 0.0 0.0
0.0 0.0 0.0
0.0 0.0 0.0
0.0 0.0 0.0
0.0 0.0 0.0
0.0 0.0 0.0
0.0 0.0 0.0
0.0 0.0 0.0
0.0 0.0 0.0
0.0 0.0 0.0
0.0 0.0 0.0
0.0 0.0 0.0
0.0 0.0 0.0
0.0 0.0 0.0
0.0 0.0 0.0
0.0 0.0 0.0
0.0 0.0 0.0
0.0 0.0 0.0
0.0 0.0 0.0
0.0 0.0 0.0
0.0 0.0 0.0
0.0 0.0 0.0
0.0 0.0 0.0
0.0 0.0 0.0
0.0 0.0 0.0
0.0 0.0 0.0
0.0 0.0 0.0
0.0 0.0 0.0
0.0 0.0 0.0
0.0 0.0 0.0
0.0 0.0 0.0
0.0 0.0 0.0
0.0 0.0 0.0
0.0 0.0 0.0
0.0 0.0 0.0
0.0 0.0 0.0
0.0 0.0 0.0
0.0 0.0 0.0
0.0 0.0 0.0
0.0 0.0 0.0
0.0 0.0 0.0
0.0 0.0 0.0
0.0 0.0 0.0
0.0 0.0 0.0
0.0 0.0 0.0
0.0 0.0 0.0
0.0 0.0 0.0
0.0 0.0 0.0
0.0 0.0 0.0
0.0 0.0 0.0
0.0 0.0 0.0
0.0 0.0 0.0
0.0 0.0 0.0
0.0 0.0 0.0
0.0 0.0 0.0
0.0 0.0 0.0
0.0 0.0 0.0
0.0 0.0 0.0
0.0 0.0 0.0
0.0 0.0 0.0
0.0 0.0 0.0
0.0 0.0 0.0
0.0 0.0 0.0
0.0 0.0 0.0
0.0 0.0 0.0
0.0 0.0 0.0
0.0 0.0 0.0
0.0 0.0 0.0
0.0 0.0 0.0
0.0 0.0 0.0
0.0 0.0 0.0
0.0 0.0 0.0
0.0 0.0 0.0
0.0 0.0 0.0
0.0 0.0 0.0
0.0 0.0 0.0
0.0 0.0 0.0
0.0 0.0 0.0
0.0 0.0 0.0
0.0 0.0 0.0
0.0 0.0 0.0
0.0 0.0 0.0
0.0 0.0 0.0
0.0 0.0 0.0
0.0 0.0 0.0
0.0 0.0 0.0
0.0 0.0 0.0
0.0 0.0 0.0
0.0 0.0 0.0
0.0 0.0 0.0
0.0 0.0 0.0
0.0 0.0 0.0
0.0 0.0 0.0
0.0 0.0 0.0
0.0 0.0 0.0
0.0 0.0 0.0
0.0 0.0 0.0
0.0 0.0 0.0
0.0 0.0 0.0
1.36974874563 0.0 0.0
1.33434553879 0.0 0.0
1.32522219656 0.0 0.0
1.32249271285 0.0 0.0
1.32276463954 0.0 0.0
1.32411138941 0.0 0.0
1.32536596648 0.0 0.0
1.32676740048 0.0 0.0
1.32760738679 0.0 0.0
1.32601270759 0.0 0.0
1.32716812276 0.0 0.0
1.32654054239 0.0 0.0
1.32770257141 0.0 0.0
1.32771485401 0.0 0.0
1.33033905669 0.0 0.0
1.33331182244 0.0 0.0
1.33959576617 0.0 0.0
1.34792154051 0.0 0.0
1.35769511582 0.0 0.0
1.3713478358 0.0 0.0
1.38552798887 0.0 0.0
1.40356177085 0.0 0.0
1.42425837076 0.0 0.0
1.44976136216 0.0 0.0
1.4784076162 0.0 0.0
1.5086284883 0.0 0.0
1.53989478056 0.0 0.0
1.57415330493 0.0 0.0
1.60907615856 0.0 0.0
1.64745124962 0.0 0.0
1.68808510091 0.0 0.0
1.72716650098 0.0 0.0
1.77070770267 0.0 0.0
1.8152330821 0.0 0.0
1.86746314746 0.0 0.0
1.93073250377 0.0 0.0
2.00728010947 0.0 0.0
2.09704164483 0.0 0.0
2.20127831941 0.0 0.0
2.31121195042 0.0 0.0
2.4177100994 0.0 0.0
2.505520443 0.0 0.0
2.58364564529 0.0 0.0
2.64726450924 0.0 0.0
2.70345719965 0.0 0.0
2.75505920526 0.0 0.0
2.81138943947 0.0 0.0
2.87890946654 0.0 0.0
2.98659457118 0.0 0.0
3.12645713767 0.0 0.0
3.29516074059 0.0 0.0
3.49476333915 0.0 0.0
3.63965832585 0.0 0.0
3.70360332105 0.0 0.0
3.630880647 0.0 0.0
3.54950266771 0.0 0.0
3.49454294948 0.0 0.0
3.49327985182 0.0 0.0
3.5711546714 0.0 0.0
3.6910133706 0.0 0.0
3.81330033031 0.0 0.0
3.87470602761 0.0 0.0
3.87104373145 0.0 0.0
3.79797407435 0.0 0.0
3.7288774635 0.0 0.0
3.67202483002 0.0 0.0
3.64887286266 0.0 0.0
3.67719148225 0.0 0.0
3.74432307767 0.0 0.0
3.83040620805 0.0 0.0
3.88318644946 0.0 0.0
3.92522370796 0.0 0.0
3.88537013276 0.0 0.0
3.81123421654 0.0 0.0
3.7712122394 0.0 0.0
3.77636691178 0.0 0.0
3.77179710752 0.0 0.0
3.73538123348 0.0 0.0
3.70681736632 0.0 0.0
3.67501772079 0.0 0.0
3.59636135608 0.0 0.0
3.49735958765 0.0 0.0
3.35986833231 0.0 0.0
3.23452757919 0.0 0.0
3.13079323181 0.0 0.0
3.04421502646 0.0 0.0
2.93600844569 0.0 0.0
2.84226360258 0.0 0.0
2.7486172689 0.0 0.0
2.65187857106 0.0 0.0
2.56155281607 0.0 0.0
2.45739070989 0.0 0.0
2.34814403529 0.0 0.0
2.23991336761 0.0 0.0
2.12654382012 0.0 0.0
2.01992785339 0.0 0.0
1.93247389185 0.0 0.0
1.85380470891 0.0 0.0
1.79004040592 0.0 0.0
1.73844097542 0.0 0.0
1.69408376023 0.0 0.0
1.6569205445 0.0 0.0
1.62787331234 0.0 0.0
1.60070085986 0.0 0.0
1.57609967612 0.0 0.0
1.55899616112 0.0 0.0
1.54271648375 0.0 0.0
1.52855116574 0.0 0.0
1.51315988749 0.0 0.0
1.4947550217 0.0 0.0
1.47532036685 0.0 0.0
1.45744300236 0.0 0.0
1.44121657736 0.0 0.0
1.4269584522 0.0 0.0
1.41323224262 0.0 0.0
1.40128236317 0.0 0.0
1.39185520825 0.0 0.0
1.38264195967 0.0 0.0
1.37696658805 0.0 0.0
1.37330457057 0.0 0.0
1.36862228128 0.0 0.0
1.36418047908 0.0 0.0
1.35802544096 0.0 0.0
1.35293059252 0.0 0.0
1.34674034888 0.0 0.0
1.34376086294 0.0 0.0
1.34057202303 0.0 0.0
1.33889867581 0.0 0.0
1.33786400974 0.0 0.0
1.33700646138 0.0 0.0
1.3350592343 0.0 0.0
1.33312705833 0.0 0.0
1.33149355315 0.0 0.0
1.39462766368 0.0 0.0
1.34792003068 0.0 0.0
1.33017123694 0.0 0.0
1.324235762 0.0 0.0
1.32433930937 0.0 0.0
1.32507100419 0.0 0.0
1.32659387402 0.0 0.0
1.32725996409 0.0 0.0
1.32792284313 0.0 0.0
1.3280252598 0.0 0.0
1.32817692334 0.0 0.0
1.32830962913 0.0 0.0
1.32823941288 0.0 0.0
1.32878454966 0.0 0.0
1.33006231861 0.0 0.0
1.33282275703 0.0 0.0
1.33786303142 0.0 0.0
1.34476773599 0.0 0.0
1.35400948078 0.0 0.0
1.36551333968 0.0 0.0
1.37965490022 0.0 0.0
1.39593672415 0.0 0.0
1.41530251849 0.0 0.0
1.43876024302 0.0 0.0
1.46567627254 0.0 0.0
1.4952770756 0.0 0.0
1.52559511228 0.0 0.0
1.55795380956 0.0 0.0
1.59194500707 0.0 0.0
1.62993680256 0.0 0.0
1.66835267758 0.0 0.0
1.70888781689 0.0 0.0
1.74998636006 0.0 0.0
1.79263238527 0.0 0.0
1.84198198937 0.0 0.0
1.90027807238 0.0 0.0
1.9705890884 0.0 0.0
2.05312678466 0.0 0.0
2.14878897019 0.0 0.0
2.25656583984 0.0 0.0
2.36661891196 0.0 0.0
2.46318462758 0.0 0.0
2.54427724352 0.0 0.0
2.61441635631 0.0 0.0
2.67656192605 0.0 0.0
2.72938743716 0.0 0.0
2.78108059763 0.0 0.0
2.84327050062 0.0 0.0
2.93171954786 0.0 0.0
3.05836280524 0.0 0.0
3.21019520392 0.0 0.0
3.38838116309 0.0 0.0
3.56680237192 0.0 0.0
3.68394145649 0.0 0.0
3.66558869144 0.0 0.0
3.58690476314 0.0 0.0
3.51447398169 0.0 0.0
3.48425616871 0.0 0.0
3.53315986677 0.0 0.0
3.63016380573 0.0 0.0
3.75197940027 0.0 0.0
3.84736334696 0.0 0.0
3.87700819494 0.0 0.0
3.83267211396 0.0 0.0
3.7635998044 0.0 0.0
3.69686427097 0.0 0.0
3.65782086745 0.0 0.0
3.64824518665 0.0 0.0
3.71085816549 0.0 0.0
3.78453168477 0.0 0.0
3.8510184596 0.0 0.0
3.90592179987 0.0 0.0
3.90710873136 0.0 0.0
3.8440022393 0.0 0.0
3.78880266493 0.0 0.0
3.78126035117 0.0 0.0
3.76338173902 0.0 0.0
3.74995441974 0.0 0.0
3.72029966539 0.0 0.0
3.69308010754 0.0 0.0
3.63071451911 0.0 0.0
3.54415662118 0.0 0.0
3.42435182403 0.0 0.0
3.29551939189 0.0 0.0
3.18331425497 0.0 0.0
3.0910570989 0.0 0.0
2.98932797917 0.0 0.0
2.88373870666 0.0 0.0
2.79554804794 0.0 0.0
2.70027422411 0.0 0.0
2.60584543129 0.0 0.0
2.50959860034 0.0 0.0
2.40363916381 0.0 0.0
2.29460778336 0.0 0.0
2.18322008036 0.0 0.0
2.07252938554 0.0 0.0
1.97723934319 0.0 0.0
1.89440037252 0.0 0.0
1.82262004189 0.0 0.0
1.76443893362 0.0 0.0
1.71636247067 0.0 0.0
1.67529099159 0.0 0.0
1.64295497594 0.0 0.0
1.61475917459 0.0 0.0
1.58860263225 0.0 0.0
1.56806120496 0.0 0.0
1.55192986004 0.0 0.0
1.53682510222 0.0 0.0
1.52270677482 0.0 0.0
1.50534975519 0.0 0.0
1.48671927693 0.0 0.0
1.46793529283 0.0 0.0
1.45047429591 0.0 0.0
1.43584160923 0.0 0.0
1.42188695209 0.0 0.0
1.40931699268 0.0 0.0
1.39777898824 0.0 0.0
1.38866745947 0.0 0.0
1.3814037218 0.0 0.0
1.37664801621 0.0 0.0
1.37245354305 0.0 0.0
1.36796360842 0.0 0.0
1.3629245992 0.0 0.0
1.3571923538 0.0 0.0
1.35143909464 0.0 0.0
1.34668765444 0.0 0.0
1.34377091837 0.0 0.0
1.34141031276 0.0 0.0
1.34041757316 0.0 0.0
1.33884954359 0.0 0.0
1.33714907066 0.0 0.0
1.33561561755 0.0 0.0
1.33382779649 0.0 0.0
1.33286206429 0.0 0.0
1.49234693878 0.0 0.0
1.4693877551 0.0 0.0
1.43112244898 0.0 0.0
1.37755102041 0.0 0.0
1.30867346939 0.0 0.0
1.22448979592 0.0 0.0
1.125 0.0 0.0
1.01020408163 0.0 0.0
0.880102040818 0.0 0.0
0.734693877553 0.0 0.0
0.573979591838 0.0 0.0
0.397959183674 0.0 0.0
0.206632653062 0.0 0.0
1.49808673469 0.0 0.0
1.48278061224 0.0 0.0
1.45216836735 0.0 0.0
1.40625 0.0 0.0
1.3450255102 0.0 0.0
1.26849489796 0.0 0.0
1.17665816327 0.0 0.0
1.06951530612 0.0 0.0
0.947066326533 0.0 0.0
0.809311224492 0.0 0.0
0.656250000001 0.0 0.0
0.487882653062 0.0 0.0
0.304209183674 0.0 0.0
0.105229591837 0.0 0.0
1.33111116979 8.21097967778e-06 0.0
1.32611020472 4.22254858235e-07 0.0
1.31901053867 2.78328498014e-05 0.0
1.30590189004 5.91581094343e-05 0.0
1.28973542798 -6.81345817757e-05 0.0
1.26807656159 2.87242387936e-05 0.0
1.23638461771 -1.44245364235e-05 0.0
1.19576824218 4.45775866629e-06 0.0
1.14345751899 -2.11690424592e-05 0.0
1.08187295299 0.000155474729884 0.0
1.00910360522 9.26797226876e-05 0.0
0.923295578955 -2.45620942599e-05 0.0
0.834467218794 0.000230163030673 0.0
0.737378889896 1.81186213348e-05 0.0
0.640665489957 9.7259423209e-06 0.0
0.532265686766 0.000130847646315 0.0
0.427892622135 0.000240706664547 0.0
0.320039645511 5.67636081725e-05 0.0
0.210985721843 0.000118334361753 0.0
0.104254019387 0.000149813966613 0.0
1.33247898636 3.25778997505e-05 0.0
1.33040879729 -8.95088382377e-05 0.0
1.32438647753 0.000170060001047 0.0
1.31399293094 -4.83862937829e-05 0.0
1.29893555404 4.99947430547e-05 0.0
1.28005358839 5.68853511394e-05 0.0
1.2527555668 0.000110587145596 0.0
1.21602591303 0.000139181538081 0.0
1.16922068209 0.000152488318166 0.0
1.11083139006 0.000175022922007 0.0
1.04378469266 8.79408141591e-05 0.0
0.963756619976 1.83314372948e-05 0.0
0.876010869169 0.000196990534108 0.0
0.783673774537 9.67029968014e-05 0.0
0.686028215363 7.68373117663e-05 0.0
0.582770472475 -0.000193232733133 0.0
0.476394451265 8.36760246578e-05 0.0
0.371311857746 4.05354270702e-05 0.0
0.262423273903 -0.000131564671077 0.0
0.156334995224 -1.57518545699e-05 0.0
0.0519850035938 -3.18782986746e-05 0.0
1.1462117224 0.0978669795613 0.0
1.219865463 -0.170299518749 0.0
1.25640794811 0.105556755897 0.0
1.16051852906 -0.000900256475272 0.0
1.09821016644 -0.116759024706 0.0
1.14628105164 0.0212321824798 0.0
1.20497773107 -0.284323421719 0.0
1.24099064796 0.329183653358 0.0
1.17666908331 -0.00744574812347 0.0
1.67630789143 0.151599642034 0.0
1.72693186436 -0.145486510043 0.0
1.18613280174 -0.128371595934 0.0
1.19892257659 0.0799026774103 0.0
0.930041138235 0.019387803652 0.0
1.98820028196 0.0173111672539 0.0
1.89665247928 -0.033942718236 0.0
0.461538694641 -0.0657547236538 0.0
0.479038543626 0.056971870164 0.0
0.850666527114 -0.0056248198985 0.0
1.99173813025 -0.0670887996936 0.0
1.16260021968 0.00801553554375 0.0
0.810440887517 0.0515482960236 0.0
1.74790295281 -0.353884898831 0.0
1.75159159992 0.42209417844 0.0
1.1170077446 -0.173791560551 0.0
1.1807091174 0.195900892827 0.0
0.75524895846 -0.00762426250219 0.0
0.714234292289 0.0162241218433 0.0
0.576972406944 0.104580014959 0.0
0.551999805186 -0.127310374788 0.0
2.02834118754 -0.124976604452 0.0
2.04134688498 0.180379496314 0.0
0.830281158062 -0.0226695569884 0.0
1.29406645771 0.0178252627233 0.0
2.21607555439 -0.461356776045 0.0
2.24002228003 0.401245376167 0.0
0.829640243933 -0.00134722123283 0.0
0.848569974065 -0.0433216014313 0.0
0.55774802834 0.00974106489325 0.0
0.483911666425 -0.0884185874434 0.0
0.520491085304 0.100959111952 0.0
0.501023775561 0.0431938180122 0.0
1.32825963193 0.0514250271575 0.0
0.860174366738 0.00358223098811 0.0
0.423272097563 -0.199175803786 0.0
0.429553910519 0.220003332624 0.0
0.781807054619 0.177743940059 0.0
0.708669755107 -0.183160182374 0.0
1.30367883083 0.00405046910313 0.0
1.29515987083 -0.036855500923 0.0
0.534905737116 -0.00246508199756 0.0
0.594335175834 0.00234175923857 0.0
1.3734794179 -0.0969163521405 0.0
1.41955134715 0.066894076061 0.0
0.693416670377 0.0238292729311 0.0
0.6026739092 -0.0119701834265 0.0
0.72486512522 -0.243250781575 0.0
0.627384400992 0.230068128228 0.0
0.689192781666 0.138569947052 0.0
1.62135775826 -0.148112206891 0.0
1.56979397916 0.12805187267 0.0
0.936536009592 0.0240535318975 0.0
1.47848734481 0.058897047328 0.0
0.739956662214 -0.16898628277 0.0
0.853142296554 -0.228002265424 0.0
2.817843103 -0.357933976135 0.0
0.797882699422 0.186293274208 0.0
2.6738515691 0.315436200306 0.0
1.46619641896 -0.112061817225 0.0
1.30143736984 0.00400508389024 0.0
2.3059762967 -0.16266208526 0.0
2.33342475379 0.210946133243 0.0
0.710298975084 -0.00551348322392 0.0
0.546430782756 -0.0436645769243 0.0
0.815568314686 0.193717162178 0.0
2.81522603977 0.270535002567 0.0
0.500841697246 0.00843768312346 0.0
1.28824208084 0.000990220483894 0.0
0.52921578262 -0.000918333254579 0.0
2.61766693012 -0.35207199438 0.0
1.62061125012 0.230103062263 0.0
1.64520514554 -0.202449245539 0.0
1.16717327332 0.00342701018775 0.0