# vtk DataFile Version 2.0
2D Simulation Python
ASCII
DATASET UNSTRUCTURED_GRID
FIELD FieldData 1
NODES 1 2 int
2790 1289

POINTS 2790 double
0.0 1.0 0.0
1.725 1.0 0.0
8.275 1.0 0.0
20.0 1.0 0.0
20.0 0.0 0.0
0.0 0.0 0.0
0.1916666666663293 1.0 0.0
0.3833333333324708 1.0 0.0
0.574999999998553 1.0 0.0
0.7666666666645966 1.0 0.0
0.9583333333312576 1.0 0.0
1.149999999998384 1.0 0.0
1.341666666665662 1.0 0.0
1.533333333332819 1.0 0.0
0.0958333333331406 1.0 0.0
0.2874999999994247 1.0 0.0
0.4791666666655395 1.0 0.0
0.6708333333315728 1.0 0.0
0.8624999999976626 1.0 0.0
1.054166666664886 1.0 0.0
1.245833333332057 1.0 0.0
1.437499999999343 1.0 0.0
1.629166666666455 1.0 0.0
1.92348484848444 1.0 0.0
2.121969696968978 1.0 0.0
2.320454545453434 1.0 0.0
2.518939393937826 1.0 0.0
2.717424242422235 1.0 0.0
2.915909090906411 1.0 0.0
3.1143939393908 1.0 0.0
3.312878787875129 1.0 0.0
3.511363636359531 1.0 0.0
3.709848484843827 1.0 0.0
3.90833333332816 1.0 0.0
4.106818181812215 1.0 0.0
4.305303030296804 1.0 0.0
4.503787878781365 1.0 0.0
4.702272727265711 1.0 0.0
4.900757575750005 1.0 0.0
5.099242424235156 1.0 0.0
5.297727272720327 1.0 0.0
5.496212121205663 1.0 0.0
5.694696969690998 1.0 0.0
5.89318181817668 1.0 0.0
6.09166666666213 1.0 0.0
6.290151515147423 1.0 0.0
6.488636363633031 1.0 0.0
6.687121212118713 1.0 0.0
6.885606060604342 1.0 0.0
7.084090909089381 1.0 0.0
7.282575757574369 1.0 0.0
7.481060606059355 1.0 0.0
7.679545454544343 1.0 0.0
7.878030303029329 1.0 0.0
8.076515151514705 1.0 0.0
1.824242424242199 1.0 0.0
2.022727272726695 1.0 0.0
2.221212121211181 1.0 0.0
2.41969696969563 1.0 0.0
2.618181818180092 1.0 0.0
2.816666666664316 1.0 0.0
3.015151515148624 1.0 0.0
3.213636363633039 1.0 0.0
3.412121212117267 1.0 0.0
3.610606060601583 1.0 0.0
3.809090909085975 1.0 0.0
4.007575757570153 1.0 0.0
4.206060606054539 1.0 0.0
4.404545454539001 1.0 0.0
4.603030303023853 1.0 0.0
4.801515151507715 1.0 0.0
4.999999999992074 1.0 0.0
5.198484848477777 1.0 0.0
5.396969696963081 1.0 0.0
5.595454545448261 1.0 0.0
5.793939393933949 1.0 0.0
5.992424242419331 1.0 0.0
6.190909090904785 1.0 0.0
6.389393939390224 1.0 0.0
6.587878787875795 1.0 0.0
6.786363636361617 1.0 0.0
6.984848484846598 1.0 0.0
7.183333333331875 1.0 0.0
7.381818181816625 1.0 0.0
7.580303030301849 1.0 0.0
7.778787878786936 1.0 0.0
7.977272727272114 1.0 0.0
8.175757575757618 1.0 0.0
8.473728813558951 1.0 0.0
8.672457627118133 1.0 0.0
8.871186440676855 1.0 0.0
9.069915254236154 1.0 0.0
9.268644067794812 1.0 0.0
9.467372881354057 1.0 0.0
9.666101694912944 1.0 0.0
9.864830508471961 1.0 0.0
10.06355932203108 1.0 0.0
10.26228813558986 1.0 0.0
10.46101694914916 1.0 0.0
10.65974576270777 1.0 0.0
10.85847457626706 1.0 0.0
11.05720338982589 1.0 0.0
11.25593220338497 1.0 0.0
11.45466101694402 1.0 0.0
11.65338983050287 1.0 0.0
11.85211864406215 1.0 0.0
12.05084745762035 1.0 0.0
12.24957627117938 1.0 0.0
12.44830508473794 1.0 0.0
12.64703389829659 1.0 0.0
12.84576271185557 1.0 0.0
13.04449152541379 1.0 0.0
13.24322033897301 1.0 0.0
13.44194915253121 1.0 0.0
13.6406779660903 1.0 0.0
13.83940677964874 1.0 0.0
14.03813559320751 1.0 0.0
14.23686440676681 1.0 0.0
14.43559322032663 1.0 0.0
14.63432203388679 1.0 0.0
14.8330508474463 1.0 0.0
15.0317796610067 1.0 0.0
15.23050847456608 1.0 0.0
15.42923728812645 1.0 0.0
15.62796610168606 1.0 0.0
15.82669491524602 1.0 0.0
16.02542372880584 1.0 0.0
16.22415254236431 1.0 0.0
16.42288135592496 1.0 0.0
16.62161016948498 1.0 0.0
16.82033898304518 1.0 0.0
17.01906779660567 1.0 0.0
17.2177966101654 1.0 0.0
17.41652542372565 1.0 0.0
17.61525423728425 1.0 0.0
17.81398305084494 1.0 0.0
18.01271186440355 1.0 0.0
18.21144067796387 1.0 0.0
18.41016949152309 1.0 0.0
18.6088983050827 1.0 0.0
18.80762711864282 1.0 0.0
19.00635593220153 1.0 0.0
19.20508474576211 1.0 0.0
19.40381355932072 1.0 0.0
19.60254237288117 1.0 0.0
19.80127118644013 1.0 0.0
8.374364406779554 1.0 0.0
8.573093220338519 1.0 0.0
8.771822033897509 1.0 0.0
8.970550847456504 1.0 0.0
9.169279661015429 1.0 0.0
9.368008474574502 1.0 0.0
9.566737288133496 1.0 0.0
9.765466101692677 1.0 0.0
9.964194915251602 1.0 0.0
10.16292372881015 1.0 0.0
10.36165254236967 1.0 0.0
10.56038135592849 1.0 0.0
10.75911016948728 1.0 0.0
10.95783898304648 1.0 0.0
11.15656779660554 1.0 0.0
11.35529661016447 1.0 0.0
11.55402542372345 1.0 0.0
11.75275423728253 1.0 0.0
11.95148305084111 1.0 0.0
12.15021186439983 1.0 0.0
12.34894067795883 1.0 0.0
12.54766949151722 1.0 0.0
12.74639830507616 1.0 0.0
12.94512711863486 1.0 0.0
13.14385593219357 1.0 0.0
13.34258474575207 1.0 0.0
13.54131355931069 1.0 0.0
13.7400423728695 1.0 0.0
13.93877118642822 1.0 0.0
14.13749999998697 1.0 0.0
14.33622881354686 1.0 0.0
14.53495762710678 1.0 0.0
14.73368644066656 1.0 0.0
14.93241525422655 1.0 0.0
15.13114406778625 1.0 0.0
15.32987288134641 1.0 0.0
15.52860169490635 1.0 0.0
15.7273305084661 1.0 0.0
15.9260593220261 1.0 0.0
16.12478813558534 1.0 0.0
16.32351694914468 1.0 0.0
16.52224576270527 1.0 0.0
16.72097457626511 1.0 0.0
16.91970338982543 1.0 0.0
17.11843220338561 1.0 0.0
17.31716101694539 1.0 0.0
17.51588983050497 1.0 0.0
17.71461864406449 1.0 0.0
17.91334745762401 1.0 0.0
18.11207627118383 1.0 0.0
18.31080508474307 1.0 0.0
18.50953389830311 1.0 0.0
18.70826271186271 1.0 0.0
18.90699152542239 1.0 0.0
19.10572033898203 1.0 0.0
19.30444915254171 1.0 0.0
19.50317796610107 1.0 0.0
19.70190677966065 1.0 0.0
19.90063559322003 1.0 0.0
20.0 0.7999999999999998 0.0
20.0 0.6000000000013869 0.0
20.0 0.4000000000016644 0.0
20.0 0.2000000000008322 0.0
20.0 0.9000000000000369 0.0
20.0 0.7000000000005904 0.0
20.0 0.5000000000017577 0.0
20.0 0.3000000000012483 0.0
20.0 0.1000000000004161 0.0
19.8 0.0 0.0
19.6 0.0 0.0
19.4 0.0 0.0
19.2 0.0 0.0
19.0 0.0 0.0
18.8 0.0 0.0
18.6 0.0 0.0
18.4 0.0 0.0
18.2 0.0 0.0
18.0 0.0 0.0
17.8 0.0 0.0
17.59999999999999 0.0 0.0
17.4 0.0 0.0
17.2 0.0 0.0
16.99999999999999 0.0 0.0
16.79999999999999 0.0 0.0
16.59999999999999 0.0 0.0
16.4 0.0 0.0
16.2 0.0 0.0
15.99999999999999 0.0 0.0
15.79999999999999 0.0 0.0
15.59999999999999 0.0 0.0
15.4 0.0 0.0
15.2 0.0 0.0
15.0 0.0 0.0
14.79999999999999 0.0 0.0
14.59999999999999 0.0 0.0
14.4 0.0 0.0
14.2 0.0 0.0
13.99999999999999 0.0 0.0
13.8 0.0 0.0
13.59999999999999 0.0 0.0
13.4 0.0 0.0
13.2 0.0 0.0
13.0 0.0 0.0
12.79999999999999 0.0 0.0
12.6 0.0 0.0
12.4 0.0 0.0
12.2 0.0 0.0
11.99999999999999 0.0 0.0
11.8 0.0 0.0
11.6 0.0 0.0
11.4 0.0 0.0
11.2 0.0 0.0
11.0 0.0 0.0
10.8 0.0 0.0
10.6 0.0 0.0
10.4 0.0 0.0
10.2 0.0 0.0
9.999999999999998 0.0 0.0
9.799999999999995 0.0 0.0
9.599999999999998 0.0 0.0
9.399999999999997 0.0 0.0
9.199999999999998 0.0 0.0
8.999999999999996 0.0 0.0
8.799999999999997 0.0 0.0
8.599999999999996 0.0 0.0
8.399999999999999 0.0 0.0
8.199999999999996 0.0 0.0
7.999999999999998 0.0 0.0
7.799999999999997 0.0 0.0
7.599999999999998 0.0 0.0
7.399999999999999 0.0 0.0
7.199999999999998 0.0 0.0
6.999999999999995 0.0 0.0
6.799999999999995 0.0 0.0
6.599999999999998 0.0 0.0
6.399999999999997 0.0 0.0
6.199999999999996 0.0 0.0
5.999999999999998 0.0 0.0
5.799999999999999 0.0 0.0
5.599999999999996 0.0 0.0
5.399999999999995 0.0 0.0
5.199999999999996 0.0 0.0
4.999999999999998 0.0 0.0
4.799999999999997 0.0 0.0
4.599999999999998 0.0 0.0
4.399999999999999 0.0 0.0
4.199999999999999 0.0 0.0
3.999999999999996 0.0 0.0
3.799999999999997 0.0 0.0
3.599999999999998 0.0 0.0
3.399999999999999 0.0 0.0
3.199999999999999 0.0 0.0
3.0 0.0 0.0
2.800000000000001 0.0 0.0
2.599999999999998 0.0 0.0
2.399999999999999 0.0 0.0
2.199999999999996 0.0 0.0
1.999999999999996 0.0 0.0
1.800000000000001 0.0 0.0
1.599999999999998 0.0 0.0
1.399999999999999 0.0 0.0
1.200000000000003 0.0 0.0
1.0 0.0 0.0
0.7999999999999972 0.0 0.0
0.5999999999999979 0.0 0.0
0.3999999999999986 0.0 0.0
0.1999999999999993 0.0 0.0
19.90000000000022 0.0 0.0
19.69999999999997 0.0 0.0
19.49999999999987 0.0 0.0
19.30000000000005 0.0 0.0
19.09999999999999 0.0 0.0
18.89999999999987 0.0 0.0
18.7 0.0 0.0
18.49999999999999 0.0 0.0
18.30000000000001 0.0 0.0
18.09999999999987 0.0 0.0
17.90000000000013 0.0 0.0
17.7 0.0 0.0
17.49999999999987 0.0 0.0
17.30000000000025 0.0 0.0
17.10000000000001 0.0 0.0
16.90000000000005 0.0 0.0
16.70000000000003 0.0 0.0
16.50000000000006 0.0 0.0
16.29999999999997 0.0 0.0
16.09999999999999 0.0 0.0
15.89999999999987 0.0 0.0
15.69999999999999 0.0 0.0
15.49999999999999 0.0 0.0
15.3 0.0 0.0
15.10000000000003 0.0 0.0
14.90000000000005 0.0 0.0
14.69999999999992 0.0 0.0
14.49999999999996 0.0 0.0
14.29999999999999 0.0 0.0
14.10000000000008 0.0 0.0
13.89999999999988 0.0 0.0
13.70000000000003 0.0 0.0
13.50000000000004 0.0 0.0
13.29999999999992 0.0 0.0
13.09999999999995 0.0 0.0
12.90000000000016 0.0 0.0
12.7 0.0 0.0
12.49999999999986 0.0 0.0
12.30000000000003 0.0 0.0
12.10000000000016 0.0 0.0
11.90000000000005 0.0 0.0
11.69999999999994 0.0 0.0
11.49999999999993 0.0 0.0
11.30000000000005 0.0 0.0
11.0999999999999 0.0 0.0
10.90000000000004 0.0 0.0
10.69999999999995 0.0 0.0
10.50000000000012 0.0 0.0
10.29999999999999 0.0 0.0
10.09999999999993 0.0 0.0
9.900000000000077 0.0 0.0
9.699999999999969 0.0 0.0
9.499999999999982 0.0 0.0
9.299999999999969 0.0 0.0
9.100000000000108 0.0 0.0
8.899999999999972 0.0 0.0
8.699999999999958 0.0 0.0
8.499999999999998 0.0 0.0
8.30000000000003 0.0 0.0
8.099999999999977 0.0 0.0
7.899999999999974 0.0 0.0
7.700000000000166 0.0 0.0
7.499999999999854 0.0 0.0
7.299999999999997 0.0 0.0
7.100000000000019 0.0 0.0
6.900000000000002 0.0 0.0
6.699999999999974 0.0 0.0
6.500000000000037 0.0 0.0
6.299999999999981 0.0 0.0
6.100000000000014 0.0 0.0
5.899999999999949 0.0 0.0
5.700000000000049 0.0 0.0
5.499999999999956 0.0 0.0
5.300000000000118 0.0 0.0
5.100000000000005 0.0 0.0
4.900000000000109 0.0 0.0
4.699999999999982 0.0 0.0
4.499999999999936 0.0 0.0
4.300000000000137 0.0 0.0
4.100000000000012 0.0 0.0
3.899999999999888 0.0 0.0
3.69999999999974 0.0 0.0
3.500000000000046 0.0 0.0
3.299999999999965 0.0 0.0
3.099999999999817 0.0 0.0
2.900000000000066 0.0 0.0
2.699999999999793 0.0 0.0
2.500000000000064 0.0 0.0
2.299999999999823 0.0 0.0
[...]
POINT_DATA 2790
VECTORS vector double
1.0 0.0 0.0
0.0 0.0 0.0
0.0 0.0 0.0
0.0 0.0 0.0
1.53936654641 0.0 0.0
1.0 0.0 0.0
0.0 0.0 0.0
0.0 0.0 0.0
0.0 0.0 0.0
0.0 0.0 0.0
0.0 0.0 0.0
0.0 0.0 0.0
0.0 0.0 0.0
0.0 0.0 0.0
0.0 0.0 0.0
0.0 0.0 0.0
0.0 0.0 0.0
0.0 0.0 0.0
0.0 0.0 0.0
0.0 0.0 0.0
0.0 0.0 0.0
0.0 0.0 0.0
0.0 0.0 0.0
0.0 0.0 0.0
0.0 0.0 0.0
0.0 0.0 0.0
0.0 0.0 0.0
0.0 0.0 0.0
0.0 0.0 0.0
0.0 0.0 0.0
0.0 0.0 0.0
0.0 0.0 0.0
0.0 0.0 0.0
0.0 0.0 0.0
0.0 0.0 0.0
0.0 0.0 0.0
0.0 0.0 0.0
0.0 0.0 0.0
0.0 0.0 0.0
0.0 0.0 0.0
0.0 0.0 0.0
0.0 0.0 0.0
0.0 0.0 0.0
0.0 0.0 0.0
0.0 0.0 0.0
0.0 0.0 0.0
0.0 0.0 0.0
0.0 0.0 0.0
0.0 0.0 0.0
0.0 0.0 0.0
0.0 0.0 0.0
0.0 0.0 0.0
0.0 0.0 0.0
0.0 0.0 0.0
0.0 0.0 0.0
0.0 0.0 0.0
0.0 0.0 0.0
0.0 0.0 0.0
0.0 0.0 0.0
0.0 0.0 0.0
0.0 0.0 0.0
0.0 0.0 0.0
0.0 0.0 0.0
0.0 0.0 0.0
0.0 0.0 0.0
0.0 0.0 0.0
0.0 0.0 0.0
0.0 0.0 0.0
0.0 0.0 0.0
0.0 0.0 0.0
0.0 0.0 0.0
0.0 0.0 0.0
0.0 0.0 0.0
0.0 0.0 0.0
0.0 0.0 0.0
0.0 0.0 0.0
0.0 0.0 0.0
0.0 0.0 0.0
0.0 0.0 0.0
0.0 0.0 0.0
0.0 0.0 0.0
0.0 0.0 0.0
0.0 0.0 0.0
0.0 0.0 0.0
0.0 0.0 0.0
0.0 0.0 0.0
0.0 0.0 0.0
0.0 0.0 0.0
0.0 0.0 0.0
0.0 0.0 0.0
0.0 0.0 0.0
0.0 0.0 0.0
0.0 0.0 0.0
0.0 0.0 0.0
0.0 0.0 0.0
0.0 0.0 0.0
0.0 0.0 0.0
0.0 0.0 0.0
0.0 0.0 0.0
0.0 0.0 0.0
0.0 0.0 0.0
0.0 0.0 0.0
0.0 0.0 0.0
0.0 0.0 0.0
0.0 0.0 0.0
0.0 0.0 0.0
0.0 0.0 0.0
0.0 0.0 0.0
0.0 0.0 0.0
0.0 0.0 0.0
0.0 0.0 0.0
0.0 0.0 0.0
0.0 0.0 0.0
0.0 0.0 0.0
0.0 0.0 0.0
0.0 0.0 0.0
0.0 0.0 0.0
0.0 0.0 0.0
0.0 0.0 0.0
0.0 0.0 0.0
0.0 0.0 0.0
0.0 0.0 0.0
0.0 0.0 0.0
0.0 0.0 0.0
0.0 0.0 0.0
0.0 0.0 0.0
0.0 0.0 0.0
0.0 0.0 0.0
0.0 0.0 0.0
0.0 0.0 0.0
0.0 0.0 0.0
0.0 0.0 0.0
0.0 0.0 0.0
0.0 0.0 0.0
0.0 0.0 0.0
0.0 0.0 0.0
0.0 0.0 0.0
0.0 0.0 0.0
0.0 0.0 0.0
0.0 0.0 0.0
0.0 0.0 0.0
0.0 0.0 0.0
0.0 0.0 0.0
0.0 0.0 0.0
0.0 0.0 0.0
0.0 0.0 0.0
0.0 0.0 0.0
0.0 0.0 0.0
0.0 0.0 0.0
0.0 0.0 0.0
0.0 0.0 0.0
0.0 0.0 0.0
0.0 0.0 0.0
0.0 0.0 0.0
0.0 0.0 0.0
0.0 0.0 0.0
0.0 0.0 0.0
0.0 0.0 0.0
0.0 0.0 0.0
0.0 0.0 0.0
0.0 0.0 0.0
0.0 0.0 0.0
0.0 0.0 0.0
0.0 0.0 0.0
0.0 0.0 0.0
0.0 0.0 0.0
0.0 0.0 0.0
0.0 0.0 0.0
0.0 0.0 0.0
0.0 0.0 0.0
0.0 0.0 0.0
0.0 0.0 0.0
0.0 0.0 0.0
0.0 0.0 0.0
0.0 0.0 0.0
0.0 0.0 0.0
0.0 0.0 0.0
0.0 0.0 0.0
0.0 0.0 0.0
0.0 0.0 0.0
0.0 0.0 0.0
0.0 0.0 0.0
0.0 0.0 0.0
0.0 0.0 0.0
0.0 0.0 0.0
0.0 0.0 0.0
0.0 0.0 0.0
0.0 0.0 0.0
0.0 0.0 0.0
0.0 0.0 0.0
0.0 0.0 0.0
0.0 0.0 0.0
0.0 0.0 0.0
0.0 0.0 0.0
0.0 0.0 0.0
0.0 0.0 0.0
0.0 0.0 0.0
0.0 0.0 0.0
0.0 0.0 0.0
0.0 0.0 0.0
0.0 0.0 0.0
0.0 0.0 0.0
0.0 0.0 0.0
0.0 0.0 0.0
0.0 0.0 0.0
0.560314209257 -5.59316229679e-05 0.0
0.976386528458 0.000112444351553 0.0
1.25581926878 -0.000122561682605 0.0
1.42659728119 -0.000225623614344 0.0
0.286460902288 -0.000297568394509 0.0
0.773745341142 0.00119226579705 0.0
1.12080229693 -3.0327613626e-05 0.0
1.3433904109 -0.000756687812841 0.0
1.48181496484 -0.000181382194098 0.0
1.53882007961 0.0 0.0
1.53931794404 0.0 0.0
1.53971512541 0.0 0.0
1.5403162089 0.0 0.0
1.53973476948 0.0 0.0
1.54079828425 0.0 0.0
1.54099829358 0.0 0.0
1.54043770391 0.0 0.0
1.54104677264 0.0 0.0
1.54110609812 0.0 0.0
1.54051447031 0.0 0.0
1.54112092617 0.0 0.0
1.54106758865 0.0 0.0
1.54037755697 0.0 0.0
1.53938989121 0.0 0.0
1.53930381806 0.0 0.0
1.54013954483 0.0 0.0
1.53895444818 0.0 0.0
1.5383350241 0.0 0.0
1.53843517584 0.0 0.0
1.53629373063 0.0 0.0
1.53449640694 0.0 0.0
1.53347466795 0.0 0.0
1.53038228871 0.0 0.0
1.52787314831 0.0 0.0
1.52648951384 0.0 0.0
1.52323359335 0.0 0.0
1.52074498319 0.0 0.0
1.51942351953 0.0 0.0
1.51613724592 0.0 0.0
1.51355371701 0.0 0.0
1.51208440697 0.0 0.0
1.50857127099 0.0 0.0
1.50571166068 0.0 0.0
1.50397191472 0.0 0.0
1.50013724517 0.0 0.0
1.49694025054 0.0 0.0
1.49488570146 0.0 0.0
1.49035737991 0.0 0.0
1.486534458 0.0 0.0
1.48415122699 0.0 0.0
1.47968574097 0.0 0.0
1.4755288155 0.0 0.0
1.47275863179 0.0 0.0
1.46788717797 0.0 0.0
1.46332181329 0.0 0.0
1.4601718404 0.0 0.0
1.45489250345 0.0 0.0
1.45003184897 0.0 0.0
1.44652995946 0.0 0.0
1.44084188488 0.0 0.0
1.43563952461 0.0 0.0
1.43178859221 0.0 0.0
1.42883037156 0.0 0.0
1.42216022274 0.0 0.0
1.4155731344 0.0 0.0
1.40987495426 0.0 0.0
1.40510144862 0.0 0.0
1.39893240327 0.0 0.0
1.39314768235 0.0 0.0
1.38874357699 0.0 0.0
1.38223065399 0.0 0.0
1.37605588933 0.0 0.0
1.37137710617 0.0 0.0
1.36454570659 0.0 0.0
1.35809376138 0.0 0.0
1.35313618709 0.0 0.0
1.34600342978 0.0 0.0
1.33928422177 0.0 0.0
1.33381230061 0.0 0.0
1.32880476249 0.0 0.0
1.32036084738 0.0 0.0
1.31342675007 0.0 0.0
1.30574886002 0.0 0.0
1.29728347552 0.0 0.0
1.29023695505 0.0 0.0
1.2809933213 0.0 0.0
1.27210982765 0.0 0.0
1.26406962396 0.0 0.0
1.25612381183 0.0 0.0
1.24689766529 0.0 0.0
1.23815837872 0.0 0.0
1.22936304779 0.0 0.0
1.21961767478 0.0 0.0
1.21005155139 0.0 0.0
1.2002523281 0.0 0.0
1.18981565874 0.0 0.0
1.17918177467 0.0 0.0
1.16796990514 0.0 0.0
1.15635285147 0.0 0.0
1.14405144436 0.0 0.0
1.13061686219 0.0 0.0
1.11631386998 0.0 0.0
1.10063771832 0.0 0.0
1.08268008099 0.0 0.0
1.06284252692 0.0 0.0
1.04158156481 0.0 0.0
1.01938964331 0.0 0.0
1.00313646825 0.0 0.0
1.53913878174 0.0 0.0
1.53862751531 0.0 0.0
1.54022244123 0.0 0.0
1.53908061924 0.0 0.0
1.53932413266 0.0 0.0
1.53984999457 0.0 0.0
1.54156644824 0.0 0.0
1.54014906891 0.0 0.0
1.5401161719 0.0 0.0
1.54169257429 0.0 0.0
1.54022331323 0.0 0.0
1.54017918996 0.0 0.0
1.54170935231 0.0 0.0
1.54012780816 0.0 0.0
1.54009653267 0.0 0.0
1.53886911562 0.0 0.0
1.53996362288 0.0 0.0
1.53977793091 0.0 0.0
1.53808020723 0.0 0.0
1.53857383485 0.0 0.0
1.53744875553 0.0 0.0
1.53468508546 0.0 0.0
1.53406519028 0.0 0.0
1.53187094538 0.0 0.0
1.52827545497 0.0 0.0
1.52720064709 0.0 0.0
1.52480292306 0.0 0.0
1.52112355072 0.0 0.0
1.52011588825 0.0 0.0
1.51774297286 0.0 0.0
1.51397736671 0.0 0.0
1.51285177723 0.0 0.0
1.51027151189 0.0 0.0
1.50623785413 0.0 0.0
1.50485622285 0.0 0.0
1.50198047 0.0 0.0
1.4976579846 0.0 0.0
1.49589017788 0.0 0.0
1.49253224307 0.0 0.0
1.48756185145 0.0 0.0
1.48496428701 0.0 0.0
1.48198644916 0.0 0.0
1.47670426206 0.0 0.0
1.4737286639 0.0 0.0
1.47035254375 0.0 0.0
1.4646481162 0.0 0.0
1.46130446505 0.0 0.0
1.4575257145 0.0 0.0
1.45148123133 0.0 0.0
1.44781338671 0.0 0.0
1.44368031993 0.0 0.0
1.43726990253 0.0 0.0
1.43330864676 0.0 0.0
1.42902439737 0.0 0.0
1.4245742742 0.0 0.0
1.41851446185 0.0 0.0
1.41172370631 0.0 0.0
1.40708060824 0.0 0.0
1.40197916573 0.0 0.0
1.39517926898 0.0 0.0
1.39047212169 0.0 0.0
1.38548914296 0.0 0.0
1.37814117168 0.0 0.0
1.37322581268 0.0 0.0
1.3679327442 0.0 0.0
1.36033755657 0.0 0.0
1.35513324741 0.0 0.0
1.34954019179 0.0 0.0
1.34175681306 0.0 0.0
1.33619187998 0.0 0.0
1.33004405664 0.0 0.0
1.32363068381 0.0 0.0
1.3162477317 0.0 0.0
1.30894195755 0.0 0.0
1.30095842088 0.0 0.0
1.29317752862 0.0 0.0
1.28431140258 0.0 0.0
1.27615090409 0.0 0.0
1.26758335994 0.0 0.0
1.2599858992 0.0 0.0
1.25099725616 0.0 0.0
1.24209135564 0.0 0.0
1.23359859871 0.0 0.0
1.22407988979 0.0 0.0
1.21455237647 0.0 0.0
1.20498743095 0.0 0.0
1.19476655592 0.0 0.0
1.1844090906 0.0 0.0
1.17342745415 0.0 0.0
1.16205519686 0.0 0.0
1.15028771333 0.0 0.0
1.13724357736 0.0 0.0
1.12351749945 0.0 0.0
1.10871462636 0.0 0.0
1.09159388725 0.0 0.0
1.07271795218 0.0 0.0
1.05242928399 0.0 0.0
1.02998314784 0.0 0.0
1.01018298438 0.0 0.0
0.999331934273 0.0 0.0
1.0 0.0 0.0
1.0 0.0 0.0
1.0 0.0 0.0
1.0 0.0 0.0
1.0 0.0 0.0
1.0 0.0 0.0
1.0 0.0 0.0
1.0 0.0 0.0
1.0 0.0 0.0
1.17414810697 -0.0692089542026 0.0
1.22498198305 -0.0446650018885 0.0
1.22420794968 -0.0306823999672 0.0
1.08060439371 0.000100003308644 0.0
1.11703369581 8.66392757005e-06 0.0
1.11600089951 2.72047085614e-06 0.0
1.11291511709 8.70902538821e-05 0.0
1.11069817266 9.05881413074e-05 0.0
1.11061509243 -8.46614631285e-05 0.0
1.11088667237 -0.000575495864518 0.0
1.11210356607 -0.00114119094481 0.0
1.11384383389 -0.00144919552507 0.0
1.1156885491 -0.00158467329321 0.0
1.11768034345 -0.00172268420678 0.0
1.11993400134 -0.00190222056149 0.0
1.07364285107 -0.00192189719857 0.0
1.07696504691 -0.00212654571348 0.0
1.08080356763 -0.00247049349239 0.0
1.08510955868 -0.00281622587699 0.0
1.1432072119 -0.00435479968455 0.0
1.21312217153 -0.02262346587 0.0
1.11288402099 -0.00439154527165 0.0
1.08997261525 -0.00310326096572 0.0
1.19724024053 -0.0173186994642 0.0
1.12056713025 -0.00491771683245 0.0
1.13321194692 -0.00387300773584 0.0
1.18201190827 -0.0137172914743 0.0
1.12936608817 -0.00533768848847 0.0
1.16819242072 -0.0111920031882 0.0
1.16930743646 -0.00667979141119 0.0
1.18163980965 -0.0104805051723 0.0
1.13997745002 -0.00438900450533 0.0
1.15665689276 -0.00984969602754 0.0
0.875195150732 -0.000646447951518 0.0
1.21906502883 -0.170398211366 0.0
1.29074796252 -0.0110104201547 0.0
1.27981305167 -0.0129129504103 0.0
1.30667394025 -0.00735673345364 0.0
1.2667255999 -0.0152504199499 0.0
1.30657410123 -0.00661350180028 0.0
1.2200786385 -0.0219037591769 0.0
1.24776736818 -0.0181878067641 0.0
1.30824485463 -0.00607116145124 0.0
1.30931928478 -0.00551733549994 0.0
1.31099610765 -0.00466108471732 0.0
1.31135189467 -0.00418743416103 0.0
1.31132085022 -0.00380690873529 0.0
1.31117988395 -0.00334645356703 0.0
1.31087859355 -0.00294551142823 0.0
1.301316578 -0.00264528548445 0.0
1.30095170851 -0.0023233404229 0.0
1.30079433369 -0.00210755312092 0.0
1.19722761595 -0.0549342523771 0.0
1.3006101897 -0.00195835872113 0.0
1.30029724353 -0.00181397540434 0.0
1.299560654 -0.0013516395455 0.0
1.17972254056 -0.0273232310237 0.0
1.29884343102 -0.000564740790152 0.0
1.1201509626 -0.0282857417956 0.0
1.13221230608 -0.0369557141483 0.0
1.29690079631 -3.023688808e-05 0.0
1.2970450757 -1.90189896116e-05 0.0
0.831242880401 -0.000161079989904 0.0
1.29691313544 3.34424360474e-05 0.0
0.8308570078 -0.000218351224791 0.0
0.94925728238 -0.00688189462498 0.0
0.969312712447 -0.00817030387647 0.0
0.907845091425 -0.00291214635267 0.0
1.06550944791 -0.0185553416691 0.0
0.993677902729 -0.010381327692 0.0
0.895718169956 -0.00332631845536 0.0
1.02469198115 -0.0137305466356 0.0
0.885491233015 -0.00309118374935 0.0
0.876239519083 -0.00264667079634 0.0
0.868576590997 -0.00199861067682 0.0
0.862387075723 -0.00212766620069 0.0
0.856793165296 -0.00189249163977 0.0
0.851804083696 -0.00164594029513 0.0
0.84746790466 -0.00144617912266 0.0
0.843731627486 -0.00120234712403 0.0
0.840326741134 -0.00114374931147 0.0
0.837340451271 -0.00104131347705 0.0
0.834569900696 -0.000964263415685 0.0
0.832120687163 -0.000836519192964 0.0
0.830318255904 -0.00056257491088 0.0
1.30110734528 -4.77863030701e-06 0.0
0.82946618972 -0.000232971131066 0.0
0.829320905788 -5.57271823313e-05 0.0
0.829475256349 3.54273161838e-05 0.0
0.829624969656 1.49936273159e-05 0.0
1.31745622623 7.8387708464e-05 0.0
1.03508432884 -0.0398291054067 0.0
1.32217354716 0.000349642089042 0.0
1.31117284944 -0.00507899286214 0.0
1.30949697606 -0.00859645778354 0.0
1.30156920402 -0.0098743898094 0.0
1.32353873287 -0.00539425596062 0.0
0.811785964402 -0.00325368987763 0.0
0.852770954492 -0.00217243840124 0.0
0.867893921991 -0.00344483819043 0.0
0.877599680137 -0.00729625565492 0.0
1.15582667951 -0.0652496028172 0.0
1.00655765187 -0.0244898214002 0.0
1.32437511077 -9.34817417665e-05 0.0
1.3756515171 -0.00264497493431 0.0
1.37340770655 -0.00301262020758 0.0
1.14047479204 -0.0216838187025 0.0
1.36436732014 -0.0025392967562 0.0
1.07637113183 -0.0292332194831 0.0
1.37061863587 -0.00339571933575 0.0
1.36566805845 -0.00226620185783 0.0
1.36685784403 -0.00206678464305 0.0
1.36256412744 -0.00379405228612 0.0
0.91711264916 -0.014087403514 0.0
1.36799697648 -0.00195091138742 0.0
1.3593980372 -0.00413652916387 0.0
1.3687336144 -0.00175898162201 0.0
1.36880645356 -0.0011136507148 0.0
1.18692458087 -0.0176181633258 0.0
1.36870803022 -0.000338526859573 0.0
1.35921505906 -1.75384776739e-05 0.0
1.40389493312 6.9281365522e-07 0.0
0.602773265769 0.00018796618354 0.0
1.35022786914 -0.00492625425284 0.0
1.40074112713 -2.6118690323e-05 0.0
0.618472804932 0.000191105793706 0.0
0.576368401642 0.000502960424434 0.0
1.40072766545 3.18907256812e-05 0.0
0.600296393662 0.000384213151792 0.0
1.34636181552 -0.0052746585075 0.0
1.22278141796 -0.0150647259872 0.0
0.599744468809 0.000380533670315 0.0
0.599433141571 0.000334920541805 0.0
0.599495613296 0.000197364011823 0.0
0.60033184313 5.27332916556e-05 0.0
1.34026564287 -0.00571334576762 0.0
1.25180624846 -0.0130297052192 0.0
0.601932161255 -1.39453491434e-05 0.0
0.603974057101 -3.44251717699e-05 0.0
0.606257073353 -7.27583019141e-05 0.0
0.6086835525 -9.97151676282e-05 0.0
0.61206786221 -0.0003081581492 0.0
1.33242012315 -0.00620469023286 0.0
1.27450172861 -0.0113281108327 0.0
0.615267326685 -0.000373059284572 0.0
0.619008034678 -0.00047205456283 0.0
0.485756362277 -0.00032829431485 0.0
0.623380204422 -0.000587940810632 0.0
0.803631223811 -0.00730478213793 0.0
0.646206067756 -0.000780390272698 0.0
0.766098959991 -0.0051573968452 0.0
0.654121417314 -0.000966636906551 0.0
0.628074319647 -0.000650086736237 0.0
0.738281994008 -0.00386795269104 0.0
0.662363863393 -0.000807631110657 0.0
0.716627839601 -0.00295133011793 0.0
0.506555469316 0.000433786873018 0.0
0.592861433014 -0.00201725074993 0.0
0.529228429214 -0.000177071482984 0.0
1.32413910157 -0.00651723585063 0.0
1.29265398707 -0.00997690421067 0.0
1.30545094024 -0.00919011987833 0.0
1.32817358839 -0.00714206199219 0.0
1.35362569976 -0.0047664018205 0.0
1.36182351936 -0.00448661416688 0.0
0.614899866226 -0.00264816367226 0.0
0.829451191503 -0.00761115286465 0.0
1.40256068976 1.9009360636e-05 0.0
1.03497112991 -0.0583748784007 0.0
1.11243945511 0.000146770353751 0.0
1.17885437655 -0.000125310172326 0.0
1.04294989102 -0.0212908216802 0.0
0.49699151081 -4.3329967702e-06 0.0
1.11287111929 -0.0819843781368 0.0
0.964390647298 -0.0520227976826 0.0
0.546754575052 -0.00154649759142 0.0
1.41915219515 -0.00225203667139 0.0
1.4158616599 -0.00261569456727 0.0
1.42119462363 -0.00187249240656 0.0
1.41116426961 -0.00293097510179 0.0
1.28634505044 -0.316118709519 0.0
1.40523122495 -0.00328799338571 0.0
1.42433021237 -0.00166087060658 0.0
1.399181408 -0.003581656763 0.0
1.4272117949 -0.00151324343116 0.0
1.42992715226 -0.00146551341712 0.0
1.19786636713 -0.0108789864013 0.0
1.37100133879 -0.00442148939944 0.0
1.10993107891 -0.0166524933929 0.0
1.36141698625 -0.00476313928358 0.0
1.23168278033 -0.00950371027111 0.0
1.43212946458 -0.0013022515756 0.0
1.35067977739 -0.00509849814592 0.0
1.26019074302 -0.00843247988582 0.0
1.15803155211 -0.0128313768322 0.0
1.28426085485 -0.00752728531839 0.0
1.43326827202 -0.000663904523203 0.0
1.43238592618 -1.97930838579e-05 0.0
1.43138074431 0.000146858165702 0.0
1.4284787662 0.000345775775742 0.0
1.42991470669 0.000255464205479 0.0
1.43117456298 0.000143205945715 0.0
1.14460401077 -0.004294824324 0.0
0.707790085069 -0.00858046753901 0.0
0.756854514637 -0.0136523148962 0.0
0.816634096272 -0.0210135465853 0.0
0.677416668322 -0.00762944924489 0.0
0.465113090797 -0.000464235506337 0.0
0.464904676598 -0.000427097507392 0.0
0.464796269283 -0.000450597274775 0.0
1.19390567484 -0.0083381246708 0.0
0.464932577671 -0.000536875737865 0.0
0.465665967869 -0.000652058879747 0.0
0.467083991417 -0.000722513928427 0.0
1.11638293815 0.000255748904972 0.0
1.19907726327 -0.0106558117944 0.0
0.468921469486 -0.000748137842669 0.0
1.11663476945 0.000125522005882 0.0
0.470966461775 -0.000777185379254 0.0
0.473206959367 -0.000848307173635 0.0
0.475480802323 -0.000459108310389 0.0
0.478212248672 -0.000529321343445 0.0
1.10360060393 0.000128965374979 0.0
0.481392009174 -0.00059724337201 0.0
1.10332367948 0.00059845505766 0.0
0.473316574204 -0.000340762937591 0.0
0.485096196433 -0.000683892435109 0.0
1.10297512056 0.000417546093927 0.0
0.475398119873 -0.000304491417846 0.0
1.10347252252 3.90085778372e-05 0.0
0.47202168935 -0.00079679820271 0.0
0.489329767584 -0.00081447604475 0.0
1.1043912397 -0.00055149645358 0.0
0.472650251212 -0.000342887606778 0.0
0.479309440895 -0.000278816917677 0.0
1.10602032605 -0.000951860190801 0.0
0.652020911103 -0.00668410071983 0.0
1.10782348384 -0.00110849929592 0.0
1.10975282537 -0.00122381931847 0.0
0.50658067631 -0.000769058919061 0.0
1.11181364923 -0.00137457588861 0.0
1.11150241055 -0.00170228746036 0.0
1.22492627708 -0.0263084811457 0.0
0.617586909307 -0.00439983262785 0.0
0.513158230824 -0.0011673367437 0.0
1.11228777109 -0.00180044376291 0.0
1.11574074887 -0.00213220381566 0.0
0.592718859407 -0.00340490117217 0.0
0.520276115047 -0.00123646553622 0.0
1.11965135501 -0.00248648823981 0.0
0.573764733253 -0.00272939289151 0.0
0.502455594252 -0.00048855448598 0.0
1.12398360034 -0.00282299110891 0.0
1.12631267539 -0.00313203184273 0.0
0.544532030637 -0.00198423887652 0.0
1.13811635002 -0.00471163708027 0.0
1.14503090532 -0.004117248576 0.0
1.15186659948 -0.0045493353249 0.0
1.21690553997 -0.0203659808952 0.0
1.15943155275 -0.00500078060019 0.0
1.20687728138 -0.0162698166676 0.0
1.16447314774 -0.00555142477083 0.0
1.19679899927 -0.0133603798993 0.0
1.18409267428 -0.0112961702314 0.0
1.22334571379 -0.0388992667769 0.0
1.20613927823 -0.0515315338507 0.0
1.19000351321 -0.0598529127113 0.0
1.18196433334 -0.0097299159002 0.0
1.22578642112 -0.0352160710459 0.0
1.22355231881 -0.02678708644 0.0
1.19232206704 -0.0119115488779 0.0
1.15564362469 -0.00686706026761 0.0
1.20385957274 -0.0150167973841 0.0
1.14687664795 -0.00637731429125 0.0
1.21520010933 -0.0195102070104 0.0
1.13977908153 -0.0058430967216 0.0
0.569703946138 -0.00217767498301 0.0
1.13977264524 -0.00499138423109 0.0
0.588646441722 -0.00298259682904 0.0
0.529436823256 -0.00110376594344 0.0
0.654115289229 -0.006064626807 0.0
1.11977352653 -0.00433983475064 0.0
0.609781566756 -0.00376969989265 0.0
0.526854995271 -0.00138457262729 0.0
1.11560422441 -0.00408597381212 0.0
1.11150622322 -0.00370656042827 0.0
0.637862458866 -0.00494796550539 0.0
0.519960267399 -0.00128946033179 0.0
1.10783628123 -0.0033058213712 0.0
1.42743968691 -0.000185562786418 0.0
1.10457640247 -0.00297608252516 0.0
1.11526052316 -0.00242433736386 0.0
0.49057189214 -0.000220334558668 0.0
1.11352197052 -0.00222351079298 0.0
1.11162076721 -0.0020701014196 0.0
1.10985551826 -0.0019484833954 0.0
1.10817194439 -0.00173595125056 0.0
1.10679452219 -0.0012544005889 0.0
1.10626781536 -0.000695377121743 0.0
1.10594316118 -0.000504855133566 0.0
1.10860554643 -5.00194082873e-05 0.0
1.10675646901 -4.3040669569e-06 0.0
1.10757472241 -0.00026405137381 0.0
1.10469127823 -0.000516555157229 0.0
1.37982686263 -0.00411679651479 0.0
1.43056656036 -0.000172032829723 0.0
0.500730971286 -0.0010856691768 0.0
0.491572980514 -0.00107140662976 0.0
0.487479889501 -0.000960314435674 0.0
0.483949299724 -0.00087535894174 0.0
0.480913389413 -0.000816906203772 0.0
1.43117913986 -0.000112210274639 0.0
0.478438589821 -0.000416537353686 0.0
0.476126803306 -0.00048303859182 0.0
0.473947156633 -0.000433421756212 0.0
0.471964363957 -0.000412792653685 0.0
0.470240960512 -0.000379202786543 0.0
0.469045649085 -0.000291038678541 0.0
1.43237639892 -0.000606256672971 0.0
0.468559929658 -0.000178813190558 0.0
0.468557711761 -0.000118717669412 0.0
0.468750960101 -0.000102914032912 0.0
0.472259992504 0.000200891394915 0.0
1.43161594236 -0.0013418945672 0.0
1.42975561565 -0.00169573924723 0.0
1.31176960244 -0.00754616551448 0.0
1.42713449666 -0.00174189400584 0.0
1.33236459478 -0.00531371851068 0.0
0.87706185409 -8.97481489261e-05 0.0
1.42428400155 -0.0018585959185 0.0
1.00564325572 -0.0111753098797 0.0
1.08535597992 -0.0198555143991 0.0
1.42738275545 -0.000158032694518 0.0
1.42124291431 -0.00205234609787 0.0
1.22773343715 -0.0959195940677 0.0
1.41811603305 -0.00226780667139 0.0
1.42962840069 -0.00198089939758 0.0
1.38520241519 -0.00358225055844 0.0
1.42417065666 -0.00224143106887 0.0
1.41781010786 -0.00252611884522 0.0
1.42541831686 3.16237147144e-05 0.0
1.41020765941 -0.00276874386887 0.0
1.40250102058 -0.00283755279184 0.0
1.13612321888 -0.0118940884727 0.0
1.17840154997 -0.00974314258963 0.0
1.37828799158 -0.00346008839137 0.0
1.34419357079 -0.00410475765653 0.0
1.29327122448 -0.00616878761804 0.0
1.36807182749 -0.00372383977746 0.0
1.21406296796 -0.00858918417226 0.0
1.28445077914 -0.00128879052414 0.0