# vtk DataFile Version 2.0
2D Simulation Python
ASCII
DATASET UNSTRUCTURED_GRID
FIELD FieldData 1
NODES 1 2 int
2790 1289

POINTS 2790 double
0.0 1.0 0.0
1.725 1.0 0.0
8.275 1.0 0.0
20.0 1.0 0.0
20.0 0.0 0.0
0.0 0.0 0.0
0.1916666666663293 1.0 0.0
0.3833333333324708 1.0 0.0
0.574999999998553 1.0 0.0
0.7666666666645966 1.0 0.0
0.9583333333312576 1.0 0.0
1.149999999998384 1.0 0.0
1.341666666665662 1.0 0.0
1.533333333332819 1.0 0.0
0.0958333333331406 1.0 0.0
0.2874999999994247 1.0 0.0
0.4791666666655395 1.0 0.0
0.6708333333315728 1.0 0.0
0.8624999999976626 1.0 0.0
1.054166666664886 1.0 0.0
1.245833333332057 1.0 0.0
1.437499999999343 1.0 0.0
1.629166666666455 1.0 0.0
1.92348484848444 1.0 0.0
2.121969696968978 1.0 0.0
2.320454545453434 1.0 0.0
2.518939393937826 1.0 0.0
2.717424242422235 1.0 0.0
2.915909090906411 1.0 0.0
3.1143939393908 1.0 0.0
3.312878787875129 1.0 0.0
3.511363636359531 1.0 0.0
3.709848484843827 1.0 0.0
3.90833333332816 1.0 0.0
4.106818181812215 1.0 0.0
4.305303030296804 1.0 0.0
4.503787878781365 1.0 0.0
4.702272727265711 1.0 0.0
4.900757575750005 1.0 0.0
5.099242424235156 1.0 0.0
5.297727272720327 1.0 0.0
5.496212121205663 1.0 0.0
5.694696969690998 1.0 0.0
5.89318181817668 1.0 0.0
6.09166666666213 1.0 0.0
6.290151515147423 1.0 0.0
6.488636363633031 1.0 0.0
6.687121212118713 1.0 0.0
6.885606060604342 1.0 0.0
7.084090909089381 1.0 0.0
7.282575757574369 1.0 0.0
7.481060606059355 1.0 0.0
7.679545454544343 1.0 0.0
7.878030303029329 1.0 0.0
8.076515151514705 1.0 0.0
1.824242424242199 1.0 0.0
2.022727272726695 1.0 0.0
2.221212121211181 1.0 0.0
2.41969696969563 1.0 0.0
2.618181818180092 1.0 0.0
2.816666666664316 1.0 0.0
3.015151515148624 1.0 0.0
3.213636363633039 1.0 0.0
3.412121212117267 1.0 0.0
3.610606060601583 1.0 0.0
3.809090909085975 1.0 0.0
4.007575757570153 1.0 0.0
4.206060606054539 1.0 0.0
4.404545454539001 1.0 0.0
4.603030303023853 1.0 0.0
4.801515151507715 1.0 0.0
4.999999999992074 1.0 0.0
5.198484848477777 1.0 0.0
5.396969696963081 1.0 0.0
5.595454545448261 1.0 0.0
5.793939393933949 1.0 0.0
5.992424242419331 1.0 0.0
6.190909090904785 1.0 0.0
6.389393939390224 1.0 0.0
6.587878787875795 1.0 0.0
6.786363636361617 1.0 0.0
6.984848484846598 1.0 0.0
7.183333333331875 1.0 0.0
7.381818181816625 1.0 0.0
7.580303030301849 1.0 0.0
7.778787878786936 1.0 0.0
7.977272727272114 1.0 0.0
8.175757575757618 1.0 0.0
8.473728813558951 1.0 0.0
8.672457627118133 1.0 0.0
8.871186440676855 1.0 0.0
9.069915254236154 1.0 0.0
9.268644067794812 1.0 0.0
9.467372881354057 1.0 0.0
9.666101694912944 1.0 0.0
9.864830508471961 1.0 0.0
10.06355932203108 1.0 0.0
10.26228813558986 1.0 0.0
10.46101694914916 1.0 0.0
10.65974576270777 1.0 0.0
10.85847457626706 1.0 0.0
11.05720338982589 1.0 0.0
11.25593220338497 1.0 0.0
11.45466101694402 1.0 0.0
11.65338983050287 1.0 0.0
11.85211864406215 1.0 0.0
12.05084745762035 1.0 0.0
12.24957627117938 1.0 0.0
12.44830508473794 1.0 0.0
12.64703389829659 1.0 0.0
12.84576271185557 1.0 0.0
13.04449152541379 1.0 0.0
13.24322033897301 1.0 0.0
13.44194915253121 1.0 0.0
13.6406779660903 1.0 0.0
13.83940677964874 1.0 0.0
14.03813559320751 1.0 0.0
14.23686440676681 1.0 0.0
14.43559322032663 1.0 0.0
14.63432203388679 1.0 0.0
14.8330508474463 1.0 0.0
15.0317796610067 1.0 0.0
15.23050847456608 1.0 0.0
15.42923728812645 1.0 0.0
15.62796610168606 1.0 0.0
15.82669491524602 1.0 0.0
16.02542372880584 1.0 0.0
16.22415254236431 1.0 0.0
16.42288135592496 1.0 0.0
16.62161016948498 1.0 0.0
16.82033898304518 1.0 0.0
17.01906779660567 1.0 0.0
17.2177966101654 1.0 0.0
17.41652542372565 1.0 0.0
17.61525423728425 1.0 0.0
17.81398305084494 1.0 0.0
18.01271186440355 1.0 0.0
18.21144067796387 1.0 0.0
18.41016949152309 1.0 0.0
18.6088983050827 1.0 0.0
18.80762711864282 1.0 0.0
19.00635593220153 1.0 0.0
19.20508474576211 1.0 0.0
19.40381355932072 1.0 0.0
19.60254237288117 1.0 0.0
19.80127118644013 1.0 0.0
8.374364406779554 1.0 0.0
8.573093220338519 1.0 0.0
8.771822033897509 1.0 0.0
8.970550847456504 1.0 0.0
9.169279661015429 1.0 0.0
9.368008474574502 1.0 0.0
9.566737288133496 1.0 0.0
9.765466101692677 1.0 0.0
9.964194915251602 1.0 0.0
10.16292372881015 1.0 0.0
10.36165254236967 1.0 0.0
10.56038135592849 1.0 0.0
10.75911016948728 1.0 0.0
10.95783898304648 1.0 0.0
11.15656779660554 1.0 0.0
11.35529661016447 1.0 0.0
11.55402542372345 1.0 0.0
11.75275423728253 1.0 0.0
11.95148305084111 1.0 0.0
12.15021186439983 1.0 0.0
12.34894067795883 1.0 0.0
12.54766949151722 1.0 0.0
12.74639830507616 1.0 0.0
12.94512711863486 1.0 0.0
13.14385593219357 1.0 0.0
13.34258474575207 1.0 0.0
13.54131355931069 1.0 0.0
13.7400423728695 1.0 0.0
13.93877118642822 1.0 0.0
14.13749999998697 1.0 0.0
14.33622881354686 1.0 0.0
14.53495762710678 1.0 0.0
14.73368644066656 1.0 0.0
14.93241525422655 1.0 0.0
15.13114406778625 1.0 0.0
15.32987288134641 1.0 0.0
15.52860169490635 1.0 0.0
15.7273305084661 1.0 0.0
15.9260593220261 1.0 0.0
16.12478813558534 1.0 0.0
16.32351694914468 1.0 0.0
16.52224576270527 1.0 0.0
16.72097457626511 1.0 0.0
16.91970338982543 1.0 0.0
17.11843220338561 1.0 0.0
17.31716101694539 1.0 0.0
17.51588983050497 1.0 0.0
17.71461864406449 1.0 0.0
17.91334745762401 1.0 0.0
18.11207627118383 1.0 0.0
18.31080508474307 1.0 0.0
18.50953389830311 1.0 0.0
18.70826271186271 1.0 0.0
18.90699152542239 1.0 0.0
19.10572033898203 1.0 0.0
19.30444915254171 1.0 0.0
19.50317796610107 1.0 0.0
19.70190677966065 1.0 0.0
19.90063559322003 1.0 0.0
20.0 0.7999999999999998 0.0
20.0 0.6000000000013869 0.0
20.0 0.4000000000016644 0.0
20.0 0.2000000000008322 0.0
20.0 0.9000000000000369 0.0
20.0 0.7000000000005904 0.0
20.0 0.5000000000017577 0.0
20.0 0.3000000000012483 0.0
20.0 0.1000000000004161 0.0
19.8 0.0 0.0
19.6 0.0 0.0
19.4 0.0 0.0
19.2 0.0 0.0
19.0 0.0 0.0
18.8 0.0 0.0
18.6 0.0 0.0
18.4 0.0 0.0
18.2 0.0 0.0
18.0 0.0 0.0
17.8 0.0 0.0
17.59999999999999 0.0 0.0
17.4 0.0 0.0
17.2 0.0 0.0
16.99999999999999 0.0 0.0
16.79999999999999 0.0 0.0
16.59999999999999 0.0 0.0
16.4 0.0 0.0
16.2 0.0 0.0
15.99999999999999 0.0 0.0
15.79999999999999 0.0 0.0
15.59999999999999 0.0 0.0
15.4 0.0 0.0
15.2 0.0 0.0
15.0 0.0 0.0
14.79999999999999 0.0 0.0
14.59999999999999 0.0 0.0
14.4 0.0 0.0
14.2 0.0 0.0
13.99999999999999 0.0 0.0
13.8 0.0 0.0
13.59999999999999 0.0 0.0
13.4 0.0 0.0
13.2 0.0 0.0
13.0 0.0 0.0
12.79999999999999 0.0 0.0
12.6 0.0 0.0
12.4 0.0 0.0
12.2 0.0 0.0
11.99999999999999 0.0 0.0
11.8 0.0 0.0
11.6 0.0 0.0
11.4 0.0 0.0
11.2 0.0 0.0
11.0 0.0 0.0
10.8 0.0 0.0
10.6 0.0 0.0
10.4 0.0 0.0
10.2 0.0 0.0
9.999999999999998 0.0 0.0
9.799999999999995 0.0 0.0
9.599999999999998 0.0 0.0
9.399999999999997 0.0 0.0
9.199999999999998 0.0 0.0
8.999999999999996 0.0 0.0
8.799999999999997 0.0 0.0
8.599999999999996 0.0 0.0
8.399999999999999 0.0 0.0
8.199999999999996 0.0 0.0
7.999999999999998 0.0 0.0
7.799999999999997 0.0 0.0
7.599999999999998 0.0 0.0
7.399999999999999 0.0 0.0
7.199999999999998 0.0 0.0
6.999999999999995 0.0 0.0
6.799999999999995 0.0 0.0
6.599999999999998 0.0 0.0
6.399999999999997 0.0 0.0
6.199999999999996 0.0 0.0
5.999999999999998 0.0 0.0
5.799999999999999 0.0 0.0
5.599999999999996 0.0 0.0
5.399999999999995 0.0 0.0
5.199999999999996 0.0 0.0
4.999999999999998 0.0 0.0
4.799999999999997 0.0 0.0
4.599999999999998 0.0 0.0
4.399999999999999 0.0 0.0
4.199999999999999 0.0 0.0
3.999999999999996 0.0 0.0
3.799999999999997 0.0 0.0
3.599999999999998 0.0 0.0
3.399999999999999 0.0 0.0
3.199999999999999 0.0 0.0
3.0 0.0 0.0
2.800000000000001 0.0 0.0
2.599999999999998 0.0 0.0
2.399999999999999 0.0 0.0
2.199999999999996 0.0 0.0
1.999999999999996 0.0 0.0
1.800000000000001 0.0 0.0
1.599999999999998 0.0 0.0
1.399999999999999 0.0 0.0
1.200000000000003 0.0 0.0
1.0 0.0 0.0
0.7999999999999972 0.0 0.0
0.5999999999999979 0.0 0.0
0.3999999999999986 0.0 0.0
0.1999999999999993 0.0 0.0
19.90000000000022 0.0 0.0
19.69999999999997 0.0 0.0
19.49999999999987 0.0 0.0
19.30000000000005 0.0 0.0
19.09999999999999 0.0 0.0
18.89999999999987 0.0 0.0
18.7 0.0 0.0
18.49999999999999 0.0 0.0
18.30000000000001 0.0 0.0
18.09999999999987 0.0 0.0
17.90000000000013 0.0 0.0
17.7 0.0 0.0
17.49999999999987 0.0 0.0
17.30000000000025 0.0 0.0
17.10000000000001 0.0 0.0
16.90000000000005 0.0 0.0
16.70000000000003 0.0 0.0
16.50000000000006 0.0 0.0
16.29999999999997 0.0 0.0
16.09999999999999 0.0 0.0
15.89999999999987 0.0 0.0
15.69999999999999 0.0 0.0
15.49999999999999 0.0 0.0
15.3 0.0 0.0
15.10000000000003 0.0 0.0
14.90000000000005 0.0 0.0
14.69999999999992 0.0 0.0
14.49999999999996 0.0 0.0
14.29999999999999 0.0 0.0
14.10000000000008 0.0 0.0
13.89999999999988 0.0 0.0
13.70000000000003 0.0 0.0
13.50000000000004 0.0 0.0
13.29999999999992 0.0 0.0
13.09999999999995 0.0 0.0
12.90000000000016 0.0 0.0
12.7 0.0 0.0
12.49999999999986 0.0 0.0
12.30000000000003 0.0 0.0
12.10000000000016 0.0 0.0
11.90000000000005 0.0 0.0
11.69999999999994 0.0 0.0
11.49999999999993 0.0 0.0
11.30000000000005 0.0 0.0
11.0999999999999 0.0 0.0
10.90000000000004 0.0 0.0
10.69999999999995 0.0 0.0
10.50000000000012 0.0 0.0
10.29999999999999 0.0 0.0
10.09999999999993 0.0 0.0
9.900000000000077 0.0 0.0
9.699999999999969 0.0 0.0
9.499999999999982 0.0 0.0
9.299999999999969 0.0 0.0
9.100000000000108 0.0 0.0
8.899999999999972 0.0 0.0
8.699999999999958 0.0 0.0
8.499999999999998 0.0 0.0
8.30000000000003 0.0 0.0
8.099999999999977 0.0 0.0
7.899999999999974 0.0 0.0
7.700000000000166 0.0 0.0
7.499999999999854 0.0 0.0
7.299999999999997 0.0 0.0
7.100000000000019 0.0 0.0
6.900000000000002 0.0 0.0
6.699999999999974 0.0 0.0
6.500000000000037 0.0 0.0
6.299999999999981 0.0 0.0
6.100000000000014 0.0 0.0
5.899999999999949 0.0 0.0
5.700000000000049 0.0 0.0
5.499999999999956 0.0 0.0
5.300000000000118 0.0 0.0
5.100000000000005 0.0 0.0
4.900000000000109 0.0 0.0
4.699999999999982 0.0 0.0
4.499999999999936 0.0 0.0
4.300000000000137 0.0 0.0
4.100000000000012 0.0 0.0
3.899999999999888 0.0 0.0
3.69999999999974 0.0 0.0
3.500000000000046 0.0 0.0
3.299999999999965 0.0 0.0
3.099999999999817 0.0 0.0
2.900000000000066 0.0 0.0
2.699999999999793 0.0 0.0
2.500000000000064 0.0 0.0
2.299999999999823 0.0 0.0
[...]
POINT_DATA 2790
VECTORS vector double
1.0 0.0 0.0
0.0 0.0 0.0
0.0 0.0 0.0
0.0 0.0 0.0
1.5917308939 0.0 0.0
1.0 0.0 0.0
0.0 0.0 0.0
0.0 0.0 0.0
0.0 0.0 0.0
0.0 0.0 0.0
0.0 0.0 0.0
0.0 0.0 0.0
0.0 0.0 0.0
0.0 0.0 0.0
0.0 0.0 0.0
0.0 0.0 0.0
0.0 0.0 0.0
0.0 0.0 0.0
0.0 0.0 0.0
0.0 0.0 0.0
0.0 0.0 0.0
0.0 0.0 0.0
0.0 0.0 0.0
0.0 0.0 0.0
0.0 0.0 0.0
0.0 0.0 0.0
0.0 0.0 0.0
0.0 0.0 0.0
0.0 0.0 0.0
0.0 0.0 0.0
0.0 0.0 0.0
0.0 0.0 0.0
0.0 0.0 0.0
0.0 0.0 0.0
0.0 0.0 0.0
0.0 0.0 0.0
0.0 0.0 0.0
0.0 0.0 0.0
0.0 0.0 0.0
0.0 0.0 0.0
0.0 0.0 0.0
0.0 0.0 0.0
0.0 0.0 0.0
0.0 0.0 0.0
0.0 0.0 0.0
0.0 0.0 0.0
0.0 0.0 0.0
0.0 0.0 0.0
0.0 0.0 0.0
0.0 0.0 0.0
0.0 0.0 0.0
0.0 0.0 0.0
0.0 0.0 0.0
0.0 0.0 0.0
0.0 0.0 0.0
0.0 0.0 0.0
0.0 0.0 0.0
0.0 0.0 0.0
0.0 0.0 0.0
0.0 0.0 0.0
0.0 0.0 0.0
0.0 0.0 0.0
0.0 0.0 0.0
0.0 0.0 0.0
0.0 0.0 0.0
0.0 0.0 0.0
0.0 0.0 0.0
0.0 0.0 0.0
0.0 0.0 0.0
0.0 0.0 0.0
0.0 0.0 0.0
0.0 0.0 0.0
0.0 0.0 0.0
0.0 0.0 0.0
0.0 0.0 0.0
0.0 0.0 0.0
0.0 0.0 0.0
0.0 0.0 0.0
0.0 0.0 0.0
0.0 0.0 0.0
0.0 0.0 0.0
0.0 0.0 0.0
0.0 0.0 0.0
0.0 0.0 0.0
0.0 0.0 0.0
0.0 0.0 0.0
0.0 0.0 0.0
0.0 0.0 0.0
0.0 0.0 0.0
0.0 0.0 0.0
0.0 0.0 0.0
0.0 0.0 0.0
0.0 0.0 0.0
0.0 0.0 0.0
0.0 0.0 0.0
0.0 0.0 0.0
0.0 0.0 0.0
0.0 0.0 0.0
0.0 0.0 0.0
0.0 0.0 0.0
0.0 0.0 0.0
0.0 0.0 0.0
0.0 0.0 0.0
0.0 0.0 0.0
0.0 0.0 0.0
0.0 0.0 0.0
0.0 0.0 0.0
0.0 0.0 0.0
0.0 0.0 0.0
0.0 0.0 0.0
0.0 0.0 0.0
0.0 0.0 0.0
0.0 0.0 0.0
0.0 0.0 0.0
0.0 0.0 0.0
0.0 0.0 0.0
0.0 0.0 0.0
0.0 0.0 0.0
0.0 0.0 0.0
0.0 0.0 0.0
0.0 0.0 0.0
0.0 0.0 0.0
0.0 0.0 0.0
0.0 0.0 0.0
0.0 0.0 0.0
0.0 0.0 0.0
0.0 0.0 0.0
0.0 0.0 0.0
0.0 0.0 0.0
0.0 0.0 0.0
0.0 0.0 0.0
0.0 0.0 0.0
0.0 0.0 0.0
0.0 0.0 0.0
0.0 0.0 0.0
0.0 0.0 0.0
0.0 0.0 0.0
0.0 0.0 0.0
0.0 0.0 0.0
0.0 0.0 0.0
0.0 0.0 0.0
0.0 0.0 0.0
0.0 0.0 0.0
0.0 0.0 0.0
0.0 0.0 0.0
0.0 0.0 0.0
0.0 0.0 0.0
0.0 0.0 0.0
0.0 0.0 0.0
0.0 0.0 0.0
0.0 0.0 0.0
0.0 0.0 0.0
0.0 0.0 0.0
0.0 0.0 0.0
0.0 0.0 0.0
0.0 0.0 0.0
0.0 0.0 0.0
0.0 0.0 0.0
0.0 0.0 0.0
0.0 0.0 0.0
0.0 0.0 0.0
0.0 0.0 0.0
0.0 0.0 0.0
0.0 0.0 0.0
0.0 0.0 0.0
0.0 0.0 0.0
0.0 0.0 0.0
0.0 0.0 0.0
0.0 0.0 0.0
0.0 0.0 0.0
0.0 0.0 0.0
0.0 0.0 0.0
0.0 0.0 0.0
0.0 0.0 0.0
0.0 0.0 0.0
0.0 0.0 0.0
0.0 0.0 0.0
0.0 0.0 0.0
0.0 0.0 0.0
0.0 0.0 0.0
0.0 0.0 0.0
0.0 0.0 0.0
0.0 0.0 0.0
0.0 0.0 0.0
0.0 0.0 0.0
0.0 0.0 0.0
0.0 0.0 0.0
0.0 0.0 0.0
0.0 0.0 0.0
0.0 0.0 0.0
0.0 0.0 0.0
0.0 0.0 0.0
0.0 0.0 0.0
0.0 0.0 0.0
0.0 0.0 0.0
0.0 0.0 0.0
0.0 0.0 0.0
0.0 0.0 0.0
0.0 0.0 0.0
0.0 0.0 0.0
0.0 0.0 0.0
0.0 0.0 0.0
0.0 0.0 0.0
0.0 0.0 0.0
0.0 0.0 0.0
0.538969195174 0.0001807919943 0.0
0.954913134213 7.62069664432e-05 0.0
1.24960706604 -0.000193266977289 0.0
1.44724881899 -0.00028242113926 0.0
0.275159269283 0.000397667005715 0.0
0.752179479018 0.0013498133461 0.0
1.10707296325 8.45011177778e-05 0.0
1.35111376781 -0.000613811609991 0.0
1.51878297149 -0.000266569875037 0.0
1.59066664806 0.0 0.0
1.59047741143 0.0 0.0
1.59022732151 0.0 0.0
1.58980361255 0.0 0.0
1.5883185158 0.0 0.0
1.58819233543 0.0 0.0
1.58706511471 0.0 0.0
1.58497335445 0.0 0.0
1.58383844352 0.0 0.0
1.58219468494 0.0 0.0
1.57977008574 0.0 0.0
1.57842059646 0.0 0.0
1.57659918923 0.0 0.0
1.5740121707 0.0 0.0
1.57100902117 0.0 0.0
1.56886915815 0.0 0.0
1.56765683893 0.0 0.0
1.56451102092 0.0 0.0
1.56212079227 0.0 0.0
1.56070641593 0.0 0.0
1.55730466839 0.0 0.0
1.55467686593 0.0 0.0
1.55301478592 0.0 0.0
1.54933691217 0.0 0.0
1.54642072774 0.0 0.0
1.54449398947 0.0 0.0
1.54052117319 0.0 0.0
1.53730514083 0.0 0.0
1.53510382692 0.0 0.0
1.53082424099 0.0 0.0
1.52730506311 0.0 0.0
1.52482980391 0.0 0.0
1.52024291066 0.0 0.0
1.51642707324 0.0 0.0
1.51369509866 0.0 0.0
1.5088010142 0.0 0.0
1.50472583372 0.0 0.0
1.50179500455 0.0 0.0
1.4963636654 0.0 0.0
1.4917786755 0.0 0.0
1.48865103615 0.0 0.0
1.48336656023 0.0 0.0
1.47862024546 0.0 0.0
1.47531838997 0.0 0.0
1.46981543602 0.0 0.0
1.46485997344 0.0 0.0
1.46142944522 0.0 0.0
1.45576392379 0.0 0.0
1.45060163234 0.0 0.0
1.44691981816 0.0 0.0
1.44116010932 0.0 0.0
1.43583311087 0.0 0.0
1.4317030222 0.0 0.0
1.42848887893 0.0 0.0
1.42212631595 0.0 0.0
1.41553745887 0.0 0.0
1.409927214 0.0 0.0
1.40513749504 0.0 0.0
1.39881972484 0.0 0.0
1.39300239086 0.0 0.0
1.38855554743 0.0 0.0
1.38197626636 0.0 0.0
1.37583294619 0.0 0.0
1.37114094985 0.0 0.0
1.36427766644 0.0 0.0
1.35788084789 0.0 0.0
1.35288773799 0.0 0.0
1.34580121898 0.0 0.0
1.33909217068 0.0 0.0
1.33344696442 0.0 0.0
1.32817382511 0.0 0.0
1.31999795177 0.0 0.0
1.31313195438 0.0 0.0
1.30545266004 0.0 0.0
1.29698503656 0.0 0.0
1.28976531593 0.0 0.0
1.28083577238 0.0 0.0
1.27205834617 0.0 0.0
1.26396078579 0.0 0.0
1.25599246764 0.0 0.0
1.24690156652 0.0 0.0
1.23810943445 0.0 0.0
1.22926399528 0.0 0.0
1.21966334591 0.0 0.0
1.21004707655 0.0 0.0
1.20013038437 0.0 0.0
1.18979666087 0.0 0.0
1.17904636588 0.0 0.0
1.16777147924 0.0 0.0
1.15628106271 0.0 0.0
1.14382738807 0.0 0.0
1.13026156117 0.0 0.0
1.1163108371 0.0 0.0
1.10035831795 0.0 0.0
1.08213362018 0.0 0.0
1.06298701486 0.0 0.0
1.0409085854 0.0 0.0
1.01967186771 0.0 0.0
1.00399969244 0.0 0.0
1.59109258674 0.0 0.0
1.59015584759 0.0 0.0
1.59113244404 0.0 0.0
1.58937245177 0.0 0.0
1.58855733877 0.0 0.0
1.58799719286 0.0 0.0
1.58825868445 0.0 0.0
1.58541907093 0.0 0.0
1.58379740278 0.0 0.0
1.58354380336 0.0 0.0
1.5803174104 0.0 0.0
1.57842659621 0.0 0.0
1.57802714546 0.0 0.0
1.57464585854 0.0 0.0
1.57254153456 0.0 0.0
1.56935997338 0.0 0.0
1.5684434614 0.0 0.0
1.56614692318 0.0 0.0
1.56265313202 0.0 0.0
1.56156249209 0.0 0.0
1.55902400447 0.0 0.0
1.55529426402 0.0 0.0
1.55396938866 0.0 0.0
1.5511541311 0.0 0.0
1.54713132237 0.0 0.0
1.54555219208 0.0 0.0
1.5424437411 0.0 0.0
1.53811282975 0.0 0.0
1.53627017835 0.0 0.0
1.5328583555 0.0 0.0
1.52821073334 0.0 0.0
1.52610451686 0.0 0.0
1.52239239081 0.0 0.0
1.51742942782 0.0 0.0
1.51507094533 0.0 0.0
1.51109052854 0.0 0.0
1.50586561836 0.0 0.0
1.50322232431 0.0 0.0
1.49891567223 0.0 0.0
1.49318359706 0.0 0.0
1.48988206344 0.0 0.0
1.48601662777 0.0 0.0
1.48011309436 0.0 0.0
1.47661794752 0.0 0.0
1.47256809945 0.0 0.0
1.4664291617 0.0 0.0
1.4627651909 0.0 0.0
1.45856580634 0.0 0.0
1.45227456006 0.0 0.0
1.44832205102 0.0 0.0
1.44401307405 0.0 0.0
1.43761265283 0.0 0.0
1.43334540213 0.0 0.0
1.42881299496 0.0 0.0
1.4243742036 0.0 0.0
1.41845568325 0.0 0.0
1.41174504292 0.0 0.0
1.40712429455 0.0 0.0
1.4018841834 0.0 0.0
1.39508499663 0.0 0.0
1.39033191316 0.0 0.0
1.3852320767 0.0 0.0
1.37796252333 0.0 0.0
1.3730191117 0.0 0.0
1.36763811512 0.0 0.0
1.36016386221 0.0 0.0
1.35490420047 0.0 0.0
1.34926774793 0.0 0.0
1.34158351467 0.0 0.0
1.33586910718 0.0 0.0
1.32965816108 0.0 0.0
1.32315170309 0.0 0.0
1.31593148288 0.0 0.0
1.30863854523 0.0 0.0
1.30065145152 0.0 0.0
1.29279281482 0.0 0.0
1.28410308695 0.0 0.0
1.27601915794 0.0 0.0
1.26749778005 0.0 0.0
1.25982215558 0.0 0.0
1.25094911458 0.0 0.0
1.24210605403 0.0 0.0
1.23349715833 0.0 0.0
1.22408063281 0.0 0.0
1.21461409055 0.0 0.0
1.20490276071 0.0 0.0
1.19472530668 0.0 0.0
1.18435682138 0.0 0.0
1.17325035851 0.0 0.0
1.16194416047 0.0 0.0
1.15017198291 0.0 0.0
1.13691380913 0.0 0.0
1.12334296724 0.0 0.0
1.10860477021 0.0 0.0
1.09110603742 0.0 0.0
1.07265901473 0.0 0.0
1.05231695505 0.0 0.0
1.03005348633 0.0 0.0
1.01139899573 0.0 0.0
0.998771304276 0.0 0.0
1.0 0.0 0.0
1.0 0.0 0.0
1.0 0.0 0.0
1.0 0.0 0.0
1.0 0.0 0.0
1.0 0.0 0.0
1.0 0.0 0.0
1.0 0.0 0.0
1.0 0.0 0.0
1.16516734065 -0.0712021263258 0.0
1.2233227009 -0.0466478017196 0.0
1.22827461566 -0.03149249317 0.0
1.08661480909 -0.000244168808311 0.0
1.1239113923 -0.000633851038246 0.0
1.12404373656 -0.00095019462124 0.0
1.12265003627 -0.0011682784514 0.0
1.1222979188 -0.00136521144735 0.0
1.12400287724 -0.00153986971495 0.0
1.12567035321 -0.00169503988357 0.0
1.12759304663 -0.00187065789783 0.0
1.12979822487 -0.00207153105716 0.0
1.1323002881 -0.00229852996421 0.0
1.13509704729 -0.00254645428858 0.0
1.13817884741 -0.00278780967535 0.0
1.09368167018 -0.00275435916123 0.0
1.09781657796 -0.00290186783117 0.0
1.1022095179 -0.00311334104443 0.0
1.10680381042 -0.00330513738242 0.0
1.16234567543 -0.00459292393336 0.0
1.2222754054 -0.0231441384026 0.0
1.13368768982 -0.00460966948256 0.0
1.11172391593 -0.00342676526609 0.0
1.20962960998 -0.0177849340613 0.0
1.14095140499 -0.00514335823744 0.0
1.15282578132 -0.00402288156441 0.0
1.1966646685 -0.0140623534231 0.0
1.14922102676 -0.00561660411461 0.0
1.18448919051 -0.011494135589 0.0
1.18616622148 -0.00690213312902 0.0
1.19675814423 -0.0107214007386 0.0
1.15900978319 -0.00451223136825 0.0
1.17412578282 -0.00994952748848 0.0
0.882120229049 -0.000737717534856 0.0
1.20011364657 -0.138708504873 0.0
1.29371139422 -0.0107734871125 0.0
1.28152438148 -0.012587030867 0.0
1.31287045186 -0.00730914608058 0.0
1.26676652598 -0.0148160447736 0.0
1.31400784617 -0.00651911255004 0.0
1.21643002971 -0.0209825174705 0.0
1.24594579543 -0.0175805082183 0.0
1.3165158229 -0.00599645408908 0.0
1.31833421009 -0.00548912028927 0.0
1.321831478 -0.0047244159533 0.0
1.32289024242 -0.00442154981216 0.0
1.32364721566 -0.00422798705234 0.0
1.32435489269 -0.00398653252808 0.0
1.32487347092 -0.00374711388161 0.0
1.31609511158 -0.00354926973907 0.0
1.31612180445 -0.00322443012807 0.0
1.31621676945 -0.00294233871724 0.0
1.21041861742 -0.0527065489885 0.0
1.31614558177 -0.00266514952965 0.0
1.31607603023 -0.00240744318861 0.0
1.31603677188 -0.00217441353699 0.0
1.17504649375 -0.0254649342534 0.0
1.31605130747 -0.00196390264824 0.0
1.14205781302 -0.0290433404907 0.0
1.12667027902 -0.0336219277821 0.0
1.31426636056 -0.00174458676151 0.0
1.31430396999 -0.00164321140042 0.0
0.839700649751 -0.000390140864429 0.0
1.31384160221 -0.0013425996612 0.0
0.840155436017 -0.000624639730114 0.0
0.97838032144 -0.00726436791412 0.0
0.997988522506 -0.00867742551453 0.0
0.937938169885 -0.00331002341094 0.0
1.09092753795 -0.0198775381341 0.0
1.0217862226 -0.011064228605 0.0
0.92550014472 -0.0035579307892 0.0
1.05186912953 -0.0146471019808 0.0
0.915252709928 -0.00329167554104 0.0
0.906092177832 -0.00283974241775 0.0
0.897909184679 -0.00224622324629 0.0
0.891224724426 -0.00244157994527 0.0
0.884959673643 -0.00230492337746 0.0
0.879007294583 -0.00215642412584 0.0
0.873456131026 -0.00201010854529 0.0
0.868432684151 -0.00177759560253 0.0
0.863770632722 -0.00166902273786 0.0
0.859597982574 -0.00150058817039 0.0
0.85580945677 -0.00135163588636 0.0
0.852405416214 -0.00122310733384 0.0
0.849349304435 -0.0011137659941 0.0
1.31779454441 -0.00104329273566 0.0
0.846600439985 -0.00101922052881 0.0
0.844110387008 -0.000938203363166 0.0
0.842009707179 -0.000777182764764 0.0
0.840268946883 -0.000611293087159 0.0
1.33485403762 -0.000532295210982 0.0
1.03380253812 -0.0342046292357 0.0
1.34040092539 -6.20289688698e-05 0.0
1.32131115614 -0.00508752464583 0.0
1.31377863707 -0.00839790984111 0.0
1.30490035857 -0.00964132031847 0.0
1.33219851286 -0.00536246261433 0.0
0.842892339124 -0.00345347292183 0.0
0.882634802898 -0.00231462424847 0.0
0.900275166439 -0.00354090974452 0.0
0.909662407926 -0.00797636137054 0.0
1.18044251103 -0.0767532931926 0.0
1.04258455063 -0.0281340893993 0.0
1.34238943845 -0.000508240080339 0.0
1.38809062045 -0.00332413808433 0.0
1.38443079928 -0.00355443503993 0.0
1.13711574429 -0.0209050526407 0.0
1.37838923449 -0.00332858112752 0.0
1.07388819049 -0.0281213857851 0.0
1.38030469171 -0.00375362296621 0.0
1.38070469318 -0.00305379118815 0.0
1.38268880139 -0.00278335628056 0.0
1.37132686607 -0.00404075841324 0.0
0.954814399149 -0.016084304912 0.0
1.38446646686 -0.0025216572017 0.0
1.36720604043 -0.00425224218613 0.0
1.3860811696 -0.00227768493227 0.0
1.38757426201 -0.00205442695779 0.0
1.18322681587 -0.0169144331339 0.0
1.38898024149 -0.00184545952839 0.0
1.38009893094 -0.00166476915471 0.0
1.42934895589 -0.00140975739076 0.0
0.618505747583 8.65632805194e-06 0.0
1.35591717443 -0.00484776262488 0.0
1.42700536878 -0.0012798993527 0.0
0.634093397848 -5.44083422521e-05 0.0
0.594185112252 0.000161081209695 0.0
1.42751049184 -0.000919706281926 0.0
0.618836194932 -3.81325615955e-05 0.0
1.35127165754 -0.00514027385419 0.0
1.2197046824 -0.0143782170375 0.0
0.620235263536 -9.79349853832e-05 0.0
0.62211897338 -0.000134915194118 0.0
0.624247265031 -0.000168527456601 0.0
0.626627296009 -0.000209547695661 0.0
1.34440578726 -0.00553660645278 0.0
1.2496367856 -0.0124630886301 0.0
0.629290545899 -0.000258720595002 0.0
0.63228415681 -0.000318371601207 0.0
0.63565585497 -0.000396829743196 0.0
0.639336110236 -0.000452962044711 0.0
0.644139566004 -0.000650244215549 0.0
1.33580745533 -0.00607161663492 0.0
1.27339562492 -0.0108551264247 0.0
0.648701143984 -0.000704242483575 0.0
0.653685995294 -0.000769343278677 0.0
0.52518495762 -0.000640583590834 0.0
0.659046843137 -0.000842319543483 0.0
0.846938178085 -0.00849906495143 0.0
0.683953762121 -0.000993521595517 0.0
0.808102994689 -0.00602704705628 0.0
0.692229962797 -0.00119796833873 0.0
0.664424493333 -0.000842832786298 0.0
0.779323219889 -0.00449672470537 0.0
0.700909081494 -0.00105338065465 0.0
0.756932177396 -0.00345097642886 0.0
0.549186407657 0.000211341963616 0.0
0.635017120292 -0.00245238040113 0.0
0.567838641181 -0.000296442437637 0.0
1.3237333981 -0.00606522813788 0.0
1.29268124295 -0.00958439750507 0.0
1.30599128028 -0.00881536976616 0.0
1.33031787287 -0.00684749772888 0.0
1.36019757 -0.00464129881804 0.0
1.36834901403 -0.00432711583514 0.0
0.652058622107 -0.0027909440795 0.0
0.865018874416 -0.00780763770218 0.0
1.43052623865 -0.000535337523681 0.0
1.04033961419 -0.0555545010186 0.0
1.11893363256 -0.000356163120779 0.0
1.18681315069 -0.000388176945985 0.0
1.041164741 -0.018355220917 0.0
0.516401204218 8.668040654e-05 0.0
1.10251897475 -0.071133990778 0.0
1.03788332459 -0.0620658587464 0.0
0.5635238115 -0.00115872380019 0.0
1.43102078066 -0.00285634778821 0.0
1.42577671097 -0.00308580063809 0.0
1.43504072887 -0.0025379306036 0.0
1.41926943914 -0.00324962815551 0.0
1.27508861861 -0.2910572449 0.0
1.41186596314 -0.00343714675853 0.0
1.4400108878 -0.00233050108046 0.0
1.40462608399 -0.00351296767379 0.0
1.44448350319 -0.00212421432361 0.0
1.44852827212 -0.00192351786397 0.0
1.19520443847 -0.00993989476956 0.0
1.37354638418 -0.00425288240934 0.0
1.1073971225 -0.0153835278435 0.0
1.36324797756 -0.00453613102944 0.0
1.22920667619 -0.00878617616881 0.0
1.45217819156 -0.00173491516886 0.0
1.35182410758 -0.00481398890358 0.0
1.25809912067 -0.00777267373232 0.0
1.15536226322 -0.0117019063504 0.0
1.28267272546 -0.00694164352952 0.0
1.45548386172 -0.00156010895371 0.0
1.4572674035 -0.00140376605785 0.0
1.45885797157 -0.00128130346704 0.0
1.45809556424 -0.000866750160262 0.0
1.46152119299 -0.000740494719627 0.0
1.46397887492 -0.000487539956007 0.0
1.16373972655 -0.00439940775289 0.0
0.762154981848 -0.00986093679944 0.0
0.816757343982 -0.0168879401533 0.0
0.876097049286 -0.022784224933 0.0
0.730420305855 -0.00872422367487 0.0
0.488070991397 -0.000473413554883 0.0
0.48940343075 -0.000489493353 0.0
0.491099091189 -0.000526119698924 0.0
1.20911655496 -0.00846605967917 0.0
0.493038504365 -0.000557088303573 0.0
0.495181046377 -0.000593365614054 0.0
0.497550170014 -0.000635333703096 0.0
1.12467087992 -0.00060041474834 0.0
1.21332204531 -0.0108552722097 0.0
0.500186830559 -0.000684944611969 0.0
1.12383434032 -0.000352985292762 0.0
0.503137178537 -0.000745251625726 0.0
0.506436509308 -0.000836512429287 0.0
0.50988673656 -0.000489644900334 0.0
0.513799433761 -0.00054610508349 0.0
1.11312185524 -0.00101802980691 0.0
0.518126582028 -0.000590480318338 0.0
1.11453086494 -0.000818893395566 0.0
0.494197267871 -0.000225750720612 0.0
0.522787408078 -0.000640994824661 0.0
1.11595543008 -0.00107627996695 0.0
0.496096343727 -0.000524074574666 0.0
1.11801517799 -0.00121532378469 0.0
0.493576256674 -0.000744436398735 0.0
0.527712035185 -0.000740750968945 0.0
1.11984199148 -0.00137257123678 0.0
0.49394799144 -0.000648997793461 0.0
0.51849613253 -0.000358998690076 0.0
1.1219255574 -0.00155175289873 0.0
0.701494170209 -0.00823905150069 0.0
1.12428284493 -0.00175627411919 0.0
1.12695447938 -0.00198367437087 0.0
0.546492065323 -0.000629944125078 0.0
1.12981661249 -0.00221531972581 0.0
1.13032859747 -0.00256469502244 0.0
1.2297249801 -0.0264049434595 0.0
0.664537485757 -0.00553027716005 0.0
0.553523480786 -0.00107719517549 0.0
1.13186258253 -0.0026133178153 0.0
1.13574995757 -0.00282376467776 0.0
0.637951077943 -0.00426316503497 0.0
0.561081067199 -0.00114693159739 0.0
1.13985441912 -0.00300299947466 0.0
0.617794556599 -0.00341977926402 0.0
0.5445879999 -0.000668038579445 0.0
1.14419123555 -0.00316732935753 0.0
1.14634565926 -0.00332465323522 0.0
0.587976746153 -0.00241401729065 0.0
1.15773405676 -0.0049151930348 0.0
1.164084186 -0.00426834829608 0.0
1.17039311893 -0.00469136787606 0.0
1.22544293047 -0.020574379621 0.0
1.17733921574 -0.00516863390701 0.0
1.21807978073 -0.0164674246026 0.0
1.18178580227 -0.00584032827183 0.0
1.20991996674 -0.0135375502757 0.0
1.19886643803 -0.0114320122812 0.0
1.2212615157 -0.0373051425217 0.0
1.19869337371 -0.0499579664305 0.0
1.1823361457 -0.0538528753785 0.0
1.19677341991 -0.00994597069893 0.0
1.22505910362 -0.0346199697018 0.0
1.22730844199 -0.0268832538985 0.0
1.20554906111 -0.0121572889338 0.0
1.17357909754 -0.00714428277174 0.0
1.21496664606 -0.0153441408257 0.0
1.16547755852 -0.00654920863607 0.0
1.22333103238 -0.0198186411001 0.0
1.15889879805 -0.00599844624631 0.0
0.612850323647 -0.00214825666779 0.0
1.15902371848 -0.0051622080087 0.0
0.632780687374 -0.00304195989928 0.0
0.57068525646 -0.0014732085871 0.0
0.705038297315 -0.00772811488501 0.0
1.14011499778 -0.00461119453383 0.0
0.655200313133 -0.00394100753406 0.0
0.567461029145 -0.00175281069258 0.0
1.13602003593 -0.00450748697776 0.0
1.13182779213 -0.0042743670596 0.0
0.685172534465 -0.00526714454261 0.0
0.560125630578 -0.00163254787347 0.0
1.12783819112 -0.00403407519917 0.0
1.45750966353 -0.00142914561281 0.0
1.12402456264 -0.00379237892451 0.0
1.13376679565 -0.00327072726224 0.0
0.53060074153 -0.000390518047674 0.0
1.13123812617 -0.00301750251834 0.0
1.12854763998 -0.00276579215274 0.0
1.1260887492 -0.00253135387763 0.0
1.12392097093 -0.00232234017489 0.0
1.12202690277 -0.00214013590165 0.0
1.12038767103 -0.00197992245113 0.0
1.118386455 -0.00190012990662 0.0
1.11632601637 -0.00075213476237 0.0
1.11746462093 -0.00128398569404 0.0
1.11663121265 -0.00126134901042 0.0
1.11145498122 -0.000852948754288 0.0
1.38303062061 -0.00398121933938 0.0
1.45889935976 -0.00149361953269 0.0
0.53937185194 -0.00138030696781 0.0
0.529772214083 -0.00141482725584 0.0
0.524879930452 -0.00132167298117 0.0
0.520309574073 -0.00125568700664 0.0
0.516079707444 -0.00120317495019 0.0
1.45706897245 -0.0014388514846 0.0
0.512408672052 -0.000825124347211 0.0
0.508960140642 -0.000866243829103 0.0
0.505764014185 -0.000788152472314 0.0
0.502919728235 -0.00073214387867 0.0
0.500375440458 -0.000685005992741 0.0
0.498087454007 -0.000644920783301 0.0
1.45558597546 -0.00162512989189 0.0
0.496019838474 -0.000611139842564 0.0
0.494153477182 -0.000579907854453 0.0
0.492591988523 -0.000533921333123 0.0
0.49460340976 -0.000173566412686 0.0
1.45234845491 -0.00179829955223 0.0
1.44880147708 -0.00198571719774 0.0
1.31110892562 -0.00698048079081 0.0
1.44489625875 -0.00218609826698 0.0
1.33249969674 -0.00506049439188 0.0
0.884517666146 -0.000215264073735 0.0
1.4405851154 -0.00239349766032 0.0
1.00671955606 -0.0133226325554 0.0
1.08349243758 -0.0175966953736 0.0
1.45897427373 -0.0011735993314 0.0
1.43580917296 -0.00259759952909 0.0
1.2141453313 -0.0973008211483 0.0
1.43078713866 -0.00275601656157 0.0
1.44001370784 -0.00223731566754 0.0
1.38974818278 -0.00342099596394 0.0
1.43251603873 -0.00236507135226 0.0
1.42446044782 -0.00249316030452 0.0
1.45844251252 -0.000233301976056 0.0
1.41550905674 -0.0026424717875 0.0
1.4067605925 -0.00272826152018 0.0
1.13417316005 -0.010477938552 0.0
1.17607990869 -0.00877292122202 0.0
1.3805298785 -0.0031356691275 0.0
1.34424806514 -0.00379645338648 0.0
1.29174527075 -0.00562125059733 0.0
1.36961546327 -0.00337545314703 0.0
1.21165798986 -0.0077382933154 0.0
1.29992023413 -0.00206023388993 0.0