# vtk DataFile Version 2.0
2D Simulation Python
ASCII
DATASET UNSTRUCTURED_GRID
FIELD FieldData 1
NODES 1 2 int
5463 2620

POINTS 5463 double
0.0 1.0 0.0
1.725 1.0 0.0
8.275 1.0 0.0
10.0 1.0 0.0
10.0 0.0 0.0
0.0 0.0 0.0
0.09583333333314978 1.0 0.0
0.1916666666663293 1.0 0.0
0.2874999999994224 1.0 0.0
0.3833333333324708 1.0 0.0
0.4791666666655263 1.0 0.0
0.574999999998553 1.0 0.0
0.6708333333315749 1.0 0.0
0.7666666666645966 1.0 0.0
0.8624999999976839 1.0 0.0
0.9583333333312576 1.0 0.0
1.054166666664865 1.0 0.0
1.149999999998384 1.0 0.0
1.245833333332023 1.0 0.0
1.341666666665662 1.0 0.0
1.437499999999301 1.0 0.0
1.533333333332819 1.0 0.0
1.629166666666443 1.0 0.0
0.04791666666658331 1.0 0.0
0.143749999999736 1.0 0.0
0.2395833333328882 1.0 0.0
0.3354166666659436 1.0 0.0
0.4312499999990015 1.0 0.0
0.5270833333320396 1.0 0.0
0.6229166666650651 1.0 0.0
0.718749999998081 1.0 0.0
0.8145833333311351 1.0 0.0
0.9104166666644682 1.0 0.0
1.00624999999812 1.0 0.0
1.102083333331604 1.0 0.0
1.197916666665208 1.0 0.0
1.293749999998914 1.0 0.0
1.389583333332433 1.0 0.0
1.485416666666083 1.0 0.0
1.581249999999631 1.0 0.0
1.677083333333264 1.0 0.0
1.824242424242242 1.0 0.0
1.92348484848444 1.0 0.0
2.022727272726717 1.0 0.0
2.121969696968978 1.0 0.0
2.221212121211135 1.0 0.0
2.320454545453434 1.0 0.0
2.419696969695623 1.0 0.0
2.518939393937826 1.0 0.0
2.618181818180112 1.0 0.0
2.717424242422235 1.0 0.0
2.816666666664341 1.0 0.0
2.915909090906411 1.0 0.0
3.015151515148588 1.0 0.0
3.1143939393908 1.0 0.0
3.213636363632884 1.0 0.0
3.312878787875129 1.0 0.0
3.412121212117286 1.0 0.0
3.511363636359531 1.0 0.0
3.610606060601614 1.0 0.0
3.709848484843827 1.0 0.0
3.809090909086003 1.0 0.0
3.90833333332816 1.0 0.0
4.007575757570265 1.0 0.0
4.106818181812215 1.0 0.0
4.20606060605463 1.0 0.0
4.305303030296804 1.0 0.0
4.404545454538924 1.0 0.0
4.503787878781365 1.0 0.0
4.603030303023349 1.0 0.0
4.702272727265711 1.0 0.0
4.80151515150799 1.0 0.0
4.900757575750005 1.0 0.0
4.999999999992499 1.0 0.0
5.099242424235156 1.0 0.0
5.198484848477834 1.0 0.0
5.297727272720327 1.0 0.0
5.396969696963127 1.0 0.0
5.496212121205663 1.0 0.0
5.595454545448268 1.0 0.0
5.694696969690998 1.0 0.0
5.79393939393367 1.0 0.0
5.89318181817668 1.0 0.0
5.992424242419174 1.0 0.0
6.09166666666213 1.0 0.0
6.190909090904857 1.0 0.0
6.290151515147423 1.0 0.0
6.389393939390537 1.0 0.0
6.488636363633031 1.0 0.0
6.587878787875884 1.0 0.0
6.687121212118713 1.0 0.0
6.786363636361205 1.0 0.0
6.885606060604342 1.0 0.0
6.984848484846887 1.0 0.0
7.084090909089381 1.0 0.0
7.183333333331875 1.0 0.0
7.282575757574369 1.0 0.0
7.381818181816861 1.0 0.0
7.481060606059355 1.0 0.0
7.580303030301849 1.0 0.0
7.679545454544343 1.0 0.0
7.778787878786837 1.0 0.0
7.878030303029329 1.0 0.0
7.977272727271822 1.0 0.0
8.076515151514705 1.0 0.0
8.175757575757507 1.0 0.0
1.774621212121118 1.0 0.0
1.873863636363336 1.0 0.0
1.973106060605584 1.0 0.0
2.072348484847854 1.0 0.0
2.171590909090051 1.0 0.0
2.270833333332294 1.0 0.0
2.370075757574505 1.0 0.0
2.46931818181677 1.0 0.0
2.568560606058992 1.0 0.0
2.667803030301191 1.0 0.0
2.767045454543263 1.0 0.0
2.866287878785363 1.0 0.0
2.965530303027505 1.0 0.0
3.064772727269675 1.0 0.0
3.164015151511822 1.0 0.0
3.26325757575398 1.0 0.0
3.362499999996192 1.0 0.0
3.461742424238433 1.0 0.0
3.560984848480605 1.0 0.0
3.660227272722715 1.0 0.0
3.759469696964906 1.0 0.0
3.858712121207081 1.0 0.0
3.957954545449216 1.0 0.0
4.057196969691234 1.0 0.0
4.156439393933391 1.0 0.0
4.255681818175672 1.0 0.0
4.354924242417844 1.0 0.0
4.454166666660115 1.0 0.0
4.55340909090234 1.0 0.0
4.65265151514444 1.0 0.0
4.751893939386893 1.0 0.0
4.851136363629063 1.0 0.0
4.950378787871312 1.0 0.0
5.049621212113824 1.0 0.0
5.14886363635649 1.0 0.0
5.248106060599104 1.0 0.0
5.347348484841709 1.0 0.0
5.446590909084392 1.0 0.0
5.545833333326991 1.0 0.0
5.645075757569632 1.0 0.0
5.744318181812345 1.0 0.0
5.843560606055211 1.0 0.0
5.942803030297938 1.0 0.0
6.042045454540652 1.0 0.0
6.141287878783452 1.0 0.0
6.240530303026139 1.0 0.0
6.339772727269064 1.0 0.0
6.439015151511773 1.0 0.0
6.538257575754375 1.0 0.0
6.637499999997285 1.0 0.0
6.736742424239948 1.0 0.0
6.835984848482736 1.0 0.0
6.935227272725639 1.0 0.0
7.034469696968184 1.0 0.0
7.133712121210591 1.0 0.0
7.232954545453168 1.0 0.0
7.332196969695653 1.0 0.0
7.431439393938073 1.0 0.0
7.530681818180602 1.0 0.0
7.629924242423158 1.0 0.0
7.729166666665552 1.0 0.0
7.828409090908144 1.0 0.0
7.927651515150597 1.0 0.0
8.0268939393933 1.0 0.0
8.126136363636105 1.0 0.0
8.225378787878737 1.0 0.0
8.370833333332062 1.0 0.0
8.46666666666447 1.0 0.0
8.562499999996877 1.0 0.0
8.658333333329285 1.0 0.0
8.754166666662387 1.0 0.0
8.84999999999549 1.0 0.0
8.945833333328592 1.0 0.0
9.041666666661694 1.0 0.0
9.137499999994796 1.0 0.0
9.233333333327899 1.0 0.0
9.329166666661424 1.0 0.0
9.42499999999549 1.0 0.0
9.52083333332944 1.0 0.0
9.616666666663775 1.0 0.0
9.712499999997572 1.0 0.0
9.808333333331985 1.0 0.0
9.904166666665859 1.0 0.0
8.32291666666603 1.0 0.0
8.418749999998099 1.0 0.0
8.514583333330538 1.0 0.0
8.610416666663248 1.0 0.0
8.70624999999606 1.0 0.0
8.802083333329064 1.0 0.0
8.897916666661915 1.0 0.0
8.993749999995174 1.0 0.0
9.089583333328244 1.0 0.0
9.185416666661306 1.0 0.0
9.281249999995056 1.0 0.0
9.377083333328457 1.0 0.0
9.47291666666263 1.0 0.0
9.568749999996916 1.0 0.0
9.664583333330446 1.0 0.0
9.76041666666466 1.0 0.0
9.856249999999013 1.0 0.0
9.952083333332835 1.0 0.0
10.0 0.8999999999995836 0.0
10.0 0.7999999999999998 0.0
10.0 0.7000000000006934 0.0
10.0 0.6000000000013869 0.0
10.0 0.5000000000020587 0.0
10.0 0.4000000000016644 0.0
10.0 0.3000000000012483 0.0
10.0 0.2000000000008322 0.0
10.0 0.100000000000416 0.0
10.0 0.9499999999997965 0.0
10.0 0.8499999999997665 0.0
10.0 0.7500000000003316 0.0
10.0 0.6500000000010593 0.0
10.0 0.5500000000016854 0.0
10.0 0.4500000000018616 0.0
10.0 0.3500000000014563 0.0
10.0 0.2500000000010403 0.0
10.0 0.1500000000006241 0.0
10.0 0.05000000000020799 0.0
9.9 0.0 0.0
9.799999999999999 0.0 0.0
9.7 0.0 0.0
9.6 0.0 0.0
9.499999999999998 0.0 0.0
9.399999999999999 0.0 0.0
9.299999999999999 0.0 0.0
9.2 0.0 0.0
9.099999999999998 0.0 0.0
8.999999999999998 0.0 0.0
8.899999999999999 0.0 0.0
8.799999999999997 0.0 0.0
8.699999999999998 0.0 0.0
8.599999999999998 0.0 0.0
8.499999999999996 0.0 0.0
8.399999999999997 0.0 0.0
8.299999999999997 0.0 0.0
8.199999999999998 0.0 0.0
8.099999999999998 0.0 0.0
7.999999999999997 0.0 0.0
7.899999999999997 0.0 0.0
7.799999999999997 0.0 0.0
7.699999999999998 0.0 0.0
7.599999999999998 0.0 0.0
7.499999999999998 0.0 0.0
7.399999999999997 0.0 0.0
7.299999999999997 0.0 0.0
7.199999999999998 0.0 0.0
7.099999999999998 0.0 0.0
6.999999999999997 0.0 0.0
6.899999999999998 0.0 0.0
6.799999999999997 0.0 0.0
6.699999999999998 0.0 0.0
6.599999999999998 0.0 0.0
6.499999999999998 0.0 0.0
6.399999999999997 0.0 0.0
6.299999999999998 0.0 0.0
6.199999999999998 0.0 0.0
6.099999999999998 0.0 0.0
5.999999999999997 0.0 0.0
5.899999999999998 0.0 0.0
5.799999999999998 0.0 0.0
5.699999999999998 0.0 0.0
5.599999999999998 0.0 0.0
5.499999999999998 0.0 0.0
5.399999999999999 0.0 0.0
5.299999999999999 0.0 0.0
5.199999999999998 0.0 0.0
5.099999999999999 0.0 0.0
4.999999999999999 0.0 0.0
4.899999999999998 0.0 0.0
4.799999999999999 0.0 0.0
4.699999999999998 0.0 0.0
4.599999999999999 0.0 0.0
4.499999999999998 0.0 0.0
4.399999999999999 0.0 0.0
4.299999999999998 0.0 0.0
4.199999999999999 0.0 0.0
4.099999999999998 0.0 0.0
3.999999999999999 0.0 0.0
3.899999999999999 0.0 0.0
3.799999999999999 0.0 0.0
3.699999999999999 0.0 0.0
3.599999999999999 0.0 0.0
3.499999999999997 0.0 0.0
3.399999999999998 0.0 0.0
3.299999999999999 0.0 0.0
3.199999999999998 0.0 0.0
3.099999999999998 0.0 0.0
2.999999999999999 0.0 0.0
2.899999999999999 0.0 0.0
2.799999999999998 0.0 0.0
2.699999999999998 0.0 0.0
2.599999999999998 0.0 0.0
2.499999999999999 0.0 0.0
2.399999999999999 0.0 0.0
2.299999999999999 0.0 0.0
2.199999999999999 0.0 0.0
2.1 0.0 0.0
1.999999999999998 0.0 0.0
1.899999999999999 0.0 0.0
1.799999999999999 0.0 0.0
1.699999999999999 0.0 0.0
1.6 0.0 0.0
1.5 0.0 0.0
1.4 0.0 0.0
1.299999999999999 0.0 0.0
1.199999999999999 0.0 0.0
1.099999999999998 0.0 0.0
0.9999999999999982 0.0 0.0
0.9000000000000004 0.0 0.0
0.7999999999999989 0.0 0.0
0.6999999999999993 0.0 0.0
0.6000000000000014 0.0 0.0
0.5 0.0 0.0
0.3999999999999986 0.0 0.0
0.2999999999999989 0.0 0.0
0.1999999999999993 0.0 0.0
0.09999999999999964 0.0 0.0
9.950000000000111 0.0 0.0
9.849999999999985 0.0 0.0
9.749999999999934 0.0 0.0
9.650000000000023 0.0 0.0
9.549999999999994 0.0 0.0
9.449999999999935 0.0 0.0
9.349999999999998 0.0 0.0
9.249999999999993 0.0 0.0
9.150000000000004 0.0 0.0
9.049999999999937 0.0 0.0
8.950000000000063 0.0 0.0
8.849999999999998 0.0 0.0
8.749999999999936 0.0 0.0
8.650000000000125 0.0 0.0
8.550000000000004 0.0 0.0
8.450000000000026 0.0 0.0
8.350000000000014 0.0 0.0
8.250000000000028 0.0 0.0
8.149999999999984 0.0 0.0
8.049999999999997 0.0 0.0
7.949999999999934 0.0 0.0
7.849999999999996 0.0 0.0
7.749999999999996 0.0 0.0
7.649999999999999 0.0 0.0
7.550000000000017 0.0 0.0
7.450000000000027 0.0 0.0
7.349999999999959 0.0 0.0
7.24999999999998 0.0 0.0
7.149999999999995 0.0 0.0
7.05000000000004 0.0 0.0
6.949999999999942 0.0 0.0
6.850000000000014 0.0 0.0
6.750000000000021 0.0 0.0
6.649999999999959 0.0 0.0
6.549999999999974 0.0 0.0
6.450000000000082 0.0 0.0
6.349999999999999 0.0 0.0
6.249999999999932 0.0 0.0
6.150000000000017 0.0 0.0
6.050000000000081 0.0 0.0
5.950000000000025 0.0 0.0
5.849999999999971 0.0 0.0
5.749999999999967 0.0 0.0
5.650000000000027 0.0 0.0
5.54999999999995 0.0 0.0
5.450000000000021 0.0 0.0
5.349999999999977 0.0 0.0
5.25000000000006 0.0 0.0
5.149999999999993 0.0 0.0
5.049999999999967 0.0 0.0
4.950000000000038 0.0 0.0
4.849999999999985 0.0 0.0
4.749999999999991 0.0 0.0
4.649999999999984 0.0 0.0
4.550000000000054 0.0 0.0
4.449999999999986 0.0 0.0
4.349999999999979 0.0 0.0
4.249999999999999 0.0 0.0
4.150000000000015 0.0 0.0
4.049999999999988 0.0 0.0
[...]
POINT_DATA 5463
VECTORS vector double
1.0 0.0 0.0
0.0 0.0 0.0
0.0 0.0 0.0
0.0 0.0 0.0
1.31879033285 0.0 0.0
1.0 0.0 0.0
0.0 0.0 0.0
0.0 0.0 0.0
0.0 0.0 0.0
0.0 0.0 0.0
0.0 0.0 0.0
0.0 0.0 0.0
0.0 0.0 0.0
0.0 0.0 0.0
0.0 0.0 0.0
0.0 0.0 0.0
0.0 0.0 0.0
0.0 0.0 0.0
0.0 0.0 0.0
0.0 0.0 0.0
0.0 0.0 0.0
0.0 0.0 0.0
0.0 0.0 0.0
0.0 0.0 0.0
0.0 0.0 0.0
0.0 0.0 0.0
0.0 0.0 0.0
0.0 0.0 0.0
0.0 0.0 0.0
0.0 0.0 0.0
0.0 0.0 0.0
0.0 0.0 0.0
0.0 0.0 0.0
0.0 0.0 0.0
0.0 0.0 0.0
0.0 0.0 0.0
0.0 0.0 0.0
0.0 0.0 0.0
0.0 0.0 0.0
0.0 0.0 0.0
0.0 0.0 0.0
0.0 0.0 0.0
0.0 0.0 0.0
0.0 0.0 0.0
0.0 0.0 0.0
0.0 0.0 0.0
0.0 0.0 0.0
0.0 0.0 0.0
0.0 0.0 0.0
0.0 0.0 0.0
0.0 0.0 0.0
0.0 0.0 0.0
0.0 0.0 0.0
0.0 0.0 0.0
0.0 0.0 0.0
0.0 0.0 0.0
0.0 0.0 0.0
0.0 0.0 0.0
0.0 0.0 0.0
0.0 0.0 0.0
0.0 0.0 0.0
0.0 0.0 0.0
0.0 0.0 0.0
0.0 0.0 0.0
0.0 0.0 0.0
0.0 0.0 0.0
0.0 0.0 0.0
0.0 0.0 0.0
0.0 0.0 0.0
0.0 0.0 0.0
0.0 0.0 0.0
0.0 0.0 0.0
0.0 0.0 0.0
0.0 0.0 0.0
0.0 0.0 0.0
0.0 0.0 0.0
0.0 0.0 0.0
0.0 0.0 0.0
0.0 0.0 0.0
0.0 0.0 0.0
0.0 0.0 0.0
0.0 0.0 0.0
0.0 0.0 0.0
0.0 0.0 0.0
0.0 0.0 0.0
0.0 0.0 0.0
0.0 0.0 0.0
0.0 0.0 0.0
0.0 0.0 0.0
0.0 0.0 0.0
0.0 0.0 0.0
0.0 0.0 0.0
0.0 0.0 0.0
0.0 0.0 0.0
0.0 0.0 0.0
0.0 0.0 0.0
0.0 0.0 0.0
0.0 0.0 0.0
0.0 0.0 0.0
0.0 0.0 0.0
0.0 0.0 0.0
0.0 0.0 0.0
0.0 0.0 0.0
0.0 0.0 0.0
0.0 0.0 0.0
0.0 0.0 0.0
0.0 0.0 0.0
0.0 0.0 0.0
0.0 0.0 0.0
0.0 0.0 0.0
0.0 0.0 0.0
0.0 0.0 0.0
0.0 0.0 0.0
0.0 0.0 0.0
0.0 0.0 0.0
0.0 0.0 0.0
0.0 0.0 0.0
0.0 0.0 0.0
0.0 0.0 0.0
0.0 0.0 0.0
0.0 0.0 0.0
0.0 0.0 0.0
0.0 0.0 0.0
0.0 0.0 0.0
0.0 0.0 0.0
0.0 0.0 0.0
0.0 0.0 0.0
0.0 0.0 0.0
0.0 0.0 0.0
0.0 0.0 0.0
0.0 0.0 0.0
0.0 0.0 0.0
0.0 0.0 0.0
0.0 0.0 0.0
0.0 0.0 0.0
0.0 0.0 0.0
0.0 0.0 0.0
0.0 0.0 0.0
0.0 0.0 0.0
0.0 0.0 0.0
0.0 0.0 0.0
0.0 0.0 0.0
0.0 0.0 0.0
0.0 0.0 0.0
0.0 0.0 0.0
0.0 0.0 0.0
0.0 0.0 0.0
0.0 0.0 0.0
0.0 0.0 0.0
0.0 0.0 0.0
0.0 0.0 0.0
0.0 0.0 0.0
0.0 0.0 0.0
0.0 0.0 0.0
0.0 0.0 0.0
0.0 0.0 0.0
0.0 0.0 0.0
0.0 0.0 0.0
0.0 0.0 0.0
0.0 0.0 0.0
0.0 0.0 0.0
0.0 0.0 0.0
0.0 0.0 0.0
0.0 0.0 0.0
0.0 0.0 0.0
0.0 0.0 0.0
0.0 0.0 0.0
0.0 0.0 0.0
0.0 0.0 0.0
0.0 0.0 0.0
0.0 0.0 0.0
0.0 0.0 0.0
0.0 0.0 0.0
0.0 0.0 0.0
0.0 0.0 0.0
0.0 0.0 0.0
0.0 0.0 0.0
0.0 0.0 0.0
0.0 0.0 0.0
0.0 0.0 0.0
0.0 0.0 0.0
0.0 0.0 0.0
0.0 0.0 0.0
0.0 0.0 0.0
0.0 0.0 0.0
0.0 0.0 0.0
0.0 0.0 0.0
0.0 0.0 0.0
0.0 0.0 0.0
0.0 0.0 0.0
0.0 0.0 0.0
0.0 0.0 0.0
0.0 0.0 0.0
0.0 0.0 0.0
0.0 0.0 0.0
0.0 0.0 0.0
0.0 0.0 0.0
0.0 0.0 0.0
0.0 0.0 0.0
0.0 0.0 0.0
0.0 0.0 0.0
0.0 0.0 0.0
0.0 0.0 0.0
0.0 0.0 0.0
0.0 0.0 0.0
0.0 0.0 0.0
0.0 0.0 0.0
0.357862973747 4.49615718133e-05 0.0
0.660756435747 -0.000270592348181 0.0
0.897261189701 -4.43743291375e-05 0.0
1.06811433209 -0.00013781822251 0.0
1.1813177874 -5.40571778846e-05 0.0
1.25001056585 1.09386865131e-05 0.0
1.28724287917 -4.92686779915e-05 0.0
1.30684217991 5.87096743806e-05 0.0
1.31563468815 -4.45883787906e-05 0.0
0.182128556416 0.000195737948164 0.0
0.511758241757 0.000574434438564 0.0
0.78179249137 0.000135226586044 0.0
0.985279326265 9.76535062914e-05 0.0
1.12651390414 0.00024217938102 0.0
1.21702492768 0.000201039470066 0.0
1.26977590948 9.07785812892e-06 0.0
1.29788667852 -5.13360091837e-05 0.0
1.31146272768 3.18157330637e-06 0.0
1.31834920422 0.000348676407319 0.0
1.31967033906 0.0 0.0
1.32011568045 0.0 0.0
1.32089506117 0.0 0.0
1.32031503005 0.0 0.0
1.32010431896 0.0 0.0
1.320074618 0.0 0.0
1.32048790297 0.0 0.0
1.32050476607 0.0 0.0
1.32051524798 0.0 0.0
1.32016377863 0.0 0.0
1.31995181997 0.0 0.0
1.3205701267 0.0 0.0
1.32052806006 0.0 0.0
1.32051516415 0.0 0.0
1.32046731489 0.0 0.0
1.32027205336 0.0 0.0
1.32018308459 0.0 0.0
1.32038337445 0.0 0.0
1.32034684155 0.0 0.0
1.32026613778 0.0 0.0
1.32062405952 0.0 0.0
1.32038447608 0.0 0.0
1.32038356047 0.0 0.0
1.32088378999 0.0 0.0
1.32077404514 0.0 0.0
1.32063531086 0.0 0.0
1.32068986521 0.0 0.0
1.32051787116 0.0 0.0
1.32089153681 0.0 0.0
1.32088168679 0.0 0.0
1.32074054163 0.0 0.0
1.32034739708 0.0 0.0
1.3203962797 0.0 0.0
1.32006201317 0.0 0.0
1.31922290365 0.0 0.0
1.3178556942 0.0 0.0
1.31592049677 0.0 0.0
1.31313121503 0.0 0.0
1.31043424846 0.0 0.0
1.30741162375 0.0 0.0
1.30414212838 0.0 0.0
1.30109933913 0.0 0.0
1.29832972446 0.0 0.0
1.29554782339 0.0 0.0
1.29329634991 0.0 0.0
1.2909577398 0.0 0.0
1.2885961123 0.0 0.0
1.28634975418 0.0 0.0
1.28416969972 0.0 0.0
1.28184390399 0.0 0.0
1.27907239573 0.0 0.0
1.27696983785 0.0 0.0
1.27420839672 0.0 0.0
1.27149772328 0.0 0.0
1.26869112943 0.0 0.0
1.26546114528 0.0 0.0
1.26235569205 0.0 0.0
1.25896795148 0.0 0.0
1.25528780969 0.0 0.0
1.25156145822 0.0 0.0
1.24773652114 0.0 0.0
1.24376675825 0.0 0.0
1.23971070448 0.0 0.0
1.23573600188 0.0 0.0
1.23153702577 0.0 0.0
1.22721328994 0.0 0.0
1.2227621195 0.0 0.0
1.21821303547 0.0 0.0
1.21347661809 0.0 0.0
1.20857211775 0.0 0.0
1.20360281464 0.0 0.0
1.19850648359 0.0 0.0
1.19322762393 0.0 0.0
1.18780980361 0.0 0.0
1.18231546054 0.0 0.0
1.17653523821 0.0 0.0
1.1706102805 0.0 0.0
1.16440281648 0.0 0.0
1.1578770796 0.0 0.0
1.15094786267 0.0 0.0
1.1436695118 0.0 0.0
1.13648304474 0.0 0.0
1.12909057162 0.0 0.0
1.12132827907 0.0 0.0
1.11345094624 0.0 0.0
1.10571834946 0.0 0.0
1.0983440211 0.0 0.0
1.09050972497 0.0 0.0
1.08205698235 0.0 0.0
1.07317853652 0.0 0.0
1.06304493697 0.0 0.0
1.05198945776 0.0 0.0
1.04035731734 0.0 0.0
1.02962396226 0.0 0.0
1.02082395882 0.0 0.0
1.00855965021 0.0 0.0
0.997433377545 0.0 0.0
0.998136620552 0.0 0.0
0.994238657838 0.0 0.0
1.3206081369 0.0 0.0
1.3207437776 0.0 0.0
1.32101677075 0.0 0.0
1.32092682127 0.0 0.0
1.32083652084 0.0 0.0
1.32052229443 0.0 0.0
1.32088379463 0.0 0.0
1.32083856795 0.0 0.0
1.32094549303 0.0 0.0
1.32078111376 0.0 0.0
1.32056544239 0.0 0.0
1.32057665986 0.0 0.0
1.32083941816 0.0 0.0
1.32100780414 0.0 0.0
1.32083542216 0.0 0.0
1.32100040503 0.0 0.0
1.32072347053 0.0 0.0
1.32094178955 0.0 0.0
1.32093326805 0.0 0.0
1.32091027744 0.0 0.0
1.32099708953 0.0 0.0
1.3211238221 0.0 0.0
1.32079477361 0.0 0.0
1.32105936729 0.0 0.0
1.32123382267 0.0 0.0
1.32100940515 0.0 0.0
1.32122072684 0.0 0.0
1.3210317354 0.0 0.0
1.32117157701 0.0 0.0
1.321376421 0.0 0.0
1.32127549651 0.0 0.0
1.32117945955 0.0 0.0
1.32091803193 0.0 0.0
1.32077797324 0.0 0.0
1.31994078591 0.0 0.0
1.31890871029 0.0 0.0
1.31699774179 0.0 0.0
1.31460013082 0.0 0.0
1.31197673447 0.0 0.0
1.30896083277 0.0 0.0
1.30571365041 0.0 0.0
1.30264303818 0.0 0.0
1.29971289962 0.0 0.0
1.29688311811 0.0 0.0
1.29453750232 0.0 0.0
1.29218375044 0.0 0.0
1.28995081463 0.0 0.0
1.28752484797 0.0 0.0
1.28544006812 0.0 0.0
1.28310496352 0.0 0.0
1.28063263243 0.0 0.0
1.27821933888 0.0 0.0
1.27564792572 0.0 0.0
1.27301432951 0.0 0.0
1.27015412808 0.0 0.0
1.26713119212 0.0 0.0
1.26398453461 0.0 0.0
1.26068733377 0.0 0.0
1.25713527034 0.0 0.0
1.25349171187 0.0 0.0
1.24966341211 0.0 0.0
1.24582890871 0.0 0.0
1.24185274126 0.0 0.0
1.23778628496 0.0 0.0
1.23362675013 0.0 0.0
1.22943558475 0.0 0.0
1.22500687757 0.0 0.0
1.22046556499 0.0 0.0
1.21592917763 0.0 0.0
1.21101107797 0.0 0.0
1.20609347944 0.0 0.0
1.20106898015 0.0 0.0
1.19586514512 0.0 0.0
1.19049060811 0.0 0.0
1.18508796532 0.0 0.0
1.17949143404 0.0 0.0
1.17362910846 0.0 0.0
1.16740235193 0.0 0.0
1.16117450977 0.0 0.0
1.15427560892 0.0 0.0
1.14735351224 0.0 0.0
1.14009987152 0.0 0.0
1.13272192339 0.0 0.0
1.12519378231 0.0 0.0
1.11732865106 0.0 0.0
1.10949528382 0.0 0.0
1.1019982518 0.0 0.0
1.09448480505 0.0 0.0
1.08623598208 0.0 0.0
1.07734774055 0.0 0.0
1.06775550944 0.0 0.0
1.05684778052 0.0 0.0
1.04525255883 0.0 0.0
1.03327737223 0.0 0.0
1.02335261102 0.0 0.0
1.01200414839 0.0 0.0
1.00036797537 0.0 0.0
0.992405735155 0.0 0.0
0.991055450216 0.0 0.0
0.984372586447 0.0 0.0
1.0 0.0 0.0
1.0 0.0 0.0
1.0 0.0 0.0
1.0 0.0 0.0
1.0 0.0 0.0
1.0 0.0 0.0
1.0 0.0 0.0
1.0 0.0 0.0
1.0 0.0 0.0
1.0 0.0 0.0
1.0 0.0 0.0
1.0 0.0 0.0
1.0 0.0 0.0
1.0 0.0 0.0
1.0 0.0 0.0
1.0 0.0 0.0
1.0 0.0 0.0
1.0 0.0 0.0
1.0 0.0 0.0
1.06926771973 -0.060389918242 0.0
1.16906622659 -0.0001117866587 0.0
1.17710044814 -3.34569705732e-05 0.0
1.19216607715 -0.0378632577387 0.0
1.16241517144 -0.000111591789051 0.0
1.15315893151 -0.0536763904256 0.0
1.1565179171 0.000131861450727 0.0
1.20875705977 -0.0296291330608 0.0
1.17808692257 -0.0055966368548 0.0
1.17077171178 -0.00392214932388 0.0
1.18499048239 -0.00896839860462 0.0
1.16366588132 -0.0022644597018 0.0
1.19348660575 -0.0132775316853 0.0
1.16691789703 2.55696273282e-05 0.0
1.21173706443 -0.018535285557 0.0
1.18011986856 -6.51288514871e-05 0.0
1.20982318427 -0.0234271805196 0.0
0.954181707086 8.68613424957e-05 0.0
1.18119385823 -0.0784062325518 0.0
0.954240700375 -0.000157834969914 0.0
1.15980216118 -0.0463111204597 0.0
0.975130042245 -0.00268010149433 0.0
0.990862252062 -0.00450596449607 0.0
0.973384436399 -0.00167025341644 0.0
1.0064178662 -0.00757839810517 0.0
0.969963114711 -0.000361932827474 0.0
1.02913880146 -0.0115257134408 0.0
0.957906536277 3.25968790579e-05 0.0
1.27993276888 -3.33081198346e-05 0.0
1.07340021581 -0.0350395413597 0.0
1.1344933138 -0.0284812678347 0.0
1.27794621625 5.64082233089e-05 0.0
1.27605537066 0.000120597309677 0.0
1.28051529271 -0.00172974640517 0.0
1.25314873453 -0.0135404310048 0.0
1.2677210386 -0.0105993660059 0.0
1.28178887447 -0.00483721257429 0.0
1.27878168317 -0.00717172443517 0.0
1.28079093119 -0.00521316489142 0.0
1.28442319363 4.02852331911e-05 0.0
1.17325749908 -0.0221338415046 0.0
0.906221805622 0.000140527588357 0.0
1.09296265438 -0.0283076563923 0.0
0.913934786202 0.000168949651037 0.0
1.20685019852 -0.0188192761681 0.0
1.28472485554 0.000126474192214 0.0
1.2319658884 -0.0162131974217 0.0
1.02782324854 -0.0189571246935 0.0
0.997498197295 -0.0139296425739 0.0
0.897897773604 -0.000143319290665 0.0
1.09930545582 -0.0970158974028 0.0
1.286913911 -0.000182826325653 0.0
1.01259655272 -0.0341540020609 0.0
0.79250501157 -2.47995076575e-05 0.0
0.999900870085 -0.0267772470316 0.0
0.774067985628 -0.000173964716823 0.0
1.08985412949 -0.0504300307343 0.0
1.187725791 -0.0974925261102 0.0
0.780288338188 -9.43275014755e-05 0.0
1.29614657199 8.27994750886e-05 0.0
1.09991431028 -0.0249687486821 0.0
1.29806870153 8.9997393016e-05 0.0
1.14341338813 -0.0192799324576 0.0
1.03713880169 -0.0255085360525 0.0
1.30074993627 -5.35601996964e-05 0.0
1.29369381081 -0.00456301678293 0.0
1.25946786961 -0.00998812247174 0.0
1.27582831487 -0.00807837236975 0.0
1.29844237444 -0.00368339619527 0.0
0.803752306165 -0.00161576226263 0.0
0.806361945434 -0.00145594891151 0.0
0.814485261805 -0.00316021166095 0.0
0.792526289297 -0.00114336311207 0.0
0.832070112171 -0.00528427105515 0.0
0.752648883982 0.000205297992863 0.0
0.818595666094 -0.00766339156404 0.0
1.29759947722 1.39885300967e-05 0.0
0.752326854868 0.0002200124386 0.0
0.944837591714 -0.0170119403645 0.0
0.769769849832 -0.000156864598716 0.0
1.28664792474 -0.00548875528076 0.0
1.29845227901 7.90940976751e-05 0.0
1.23925458938 -0.0118494385806 0.0
1.29767934468 -0.00048516892329 0.0
1.17738112427 -0.0144595224499 0.0
1.21248314265 -0.0140124181909 0.0
0.842279344447 -0.0103965153145 0.0
1.02234614888 -0.0391103613117 0.0
1.17458846134 -0.000418936099457 0.0
0.711542942721 -0.00529423576374 0.0
0.669085471085 1.45143157603e-05 0.0
0.69176698107 -0.00356901936402 0.0
0.672369043549 -4.19672206245e-05 0.0
0.680249951089 -0.00229811232615 0.0
1.29694359998 -0.00390907279972 0.0
1.2804102437 -0.0058065155243 0.0
1.29218930487 -0.00415962767674 0.0
1.30351478783 -0.00409854555391 0.0
1.26272023195 -0.00776996019749 0.0
1.07409802821 -0.0200137082789 0.0
1.30713494597 -3.13772537022e-05 0.0
1.1870870123 -0.00134585523246 0.0
1.2143979121 -0.0152311457987 0.0
1.20892646145 -0.0107916098874 0.0
1.19306213845 -0.00386952969345 0.0
1.18031959898 0.000184736182941 0.0
1.20164494125 -0.0345106784317 0.0
1.1840667722 -0.000143440665935 0.0
1.0942843557 -0.0573334367536 0.0
1.19161380107 6.7529511861e-05 0.0
1.17455323026 -0.0411101903821 0.0
1.21137285097 -0.0266394727569 0.0
1.20144493993 -0.00674688295616 0.0
1.21581097557 -0.0212451113967 0.0
1.19712273389 -0.00511398591321 0.0
1.19142839709 -0.00437441591292 0.0
1.18129814284 0.000135602947849 0.0
1.19954002769 -0.00781286169491 0.0
1.16699693055 -0.0463007751626 0.0
1.17567316454 0.000127103340807 0.0
1.17892481639 -0.000117636788364 0.0
1.12282701711 -0.0557001175733 0.0
1.17421933797 -4.34839104236e-05 0.0
1.17845026483 -0.000392466792869 0.0
1.21085391253 -0.0168394786919 0.0
1.20486530736 -0.012081108258 0.0
1.18313213944 -0.00328336041285 0.0
1.18165820708 2.90551243918e-05 0.0
0.587896251553 0.000233706759757 0.0
0.806499692708 -0.0182336520537 0.0
0.61131397189 -8.74412314817e-05 0.0
0.997325605543 -0.0477110731905 0.0
0.623322150731 -0.000110432435823 0.0
0.880220274592 -0.0250846796624 0.0
0.629148416778 -0.00040534427066 0.0
0.613772770474 0.000332680204651 0.0
0.627523028527 -0.000200395931265 0.0
1.30919622112 -2.71027172519e-06 0.0
0.65552777106 -0.00501191875364 0.0
1.30957410485 8.43437562191e-05 0.0
1.30944386054 -2.76422065744e-05 0.0
1.22720151449 -0.0092759301217 0.0
1.14693002344 -0.0126192653481 0.0
1.30986926723 4.88090637799e-05 0.0
1.01371838523 -0.0541828710732 0.0
0.577839154038 -0.00010749888406 0.0
0.560536024973 8.96855852915e-05 0.0
1.15593229622 -0.101007293032 0.0
0.613109367886 -0.000344290507517 0.0
1.16564435412 -0.153087568285 0.0
0.593177986182 -0.000427963804179 0.0
1.30891524623 3.84310078504e-05 0.0
0.609633820432 -0.00112018829108 0.0
0.596627976917 -0.000588352179244 0.0
0.621687672995 -0.00217789666364 0.0
0.577482613604 1.32723250929e-05 0.0
0.623454524665 -0.00391893344436 0.0
1.30907504516 -6.70635917567e-05 0.0
1.0501480654 -0.0200954843474 0.0
1.12257751081 -0.0142829061469 0.0
1.3094700719 9.29831596339e-05 0.0
0.601470252235 0.000158671163032 0.0
1.3108742528 -0.000128363622432 0.0
0.994070276675 -0.00964022859429 0.0
1.24654604196 -0.00729075629699 0.0
1.30924255347 -0.00218704230869 0.0
1.26786815884 -0.00573015491013 0.0
1.30312804534 -0.00363083943454 0.0
1.28463549011 -0.00411720803358 0.0
1.30967411453 -8.10833477342e-05 0.0
1.01552930637 -0.0182229825928 0.0
1.26737980389 4.53007579768e-06 0.0
1.10172595419 -0.0371165565369 0.0
0.590113056207 -4.19385986915e-05 0.0
0.748370958199 -0.0124688355535 0.0
1.18307146161 -0.00990832850598 0.0
1.31018472989 -0.00117506307853 0.0
1.23893634121 -0.00762602142478 0.0
0.530933663122 -0.000609588967421 0.0
1.30994371529 2.89168879408e-05 0.0
1.10718676614 -0.0143673733661 0.0
1.27000303302 0.000124392806742 0.0
1.16912720007 -0.0266145545262 0.0
0.649457511082 -0.00588292759016 0.0
0.991690870933 0.0001592491636 0.0
0.674750202805 -0.00830987254552 0.0
0.535788348628 5.95909608958e-05 0.0
0.685397319005 -0.00813456328328 0.0
1.16218941869 -0.0115269458622 0.0
1.26848944423 2.45991953797e-05 0.0
0.969447913342 4.24215325568e-05 0.0
1.30903840445 1.67422869984e-05 0.0
1.21206210278 -0.00870048402984 0.0
1.27361215802 8.62746218123e-05 0.0
1.19309040483 -0.00921077314673 0.0
0.658333041876 -0.00656830936493 0.0
1.04401598024 -0.0140821810831 0.0
1.27101752794 -2.5698553609e-05 0.0
1.24009395561 -0.0162355614073 0.0
1.000479379 -0.00238004171865 0.0
1.02495522712 -0.00665770359494 0.0
0.994884573723 -0.00109440455654 0.0
1.04458676312 -0.0104167664373 0.0
1.01116485011 -0.00378375524202 0.0
1.29460666506 -0.00319753763022 0.0
1.00318589769 8.56744432434e-05 0.0
1.16968083094 -0.0421143382577 0.0
0.9833088338 4.0535460199e-06 0.0
1.26916371467 -0.00420599706226 0.0
1.25952061366 -0.0122586593422 0.0
1.26968891669 -0.00574293707335 0.0
1.12718043927 -0.000769903626061 0.0
1.05070577842 -0.0627361537657 0.0
1.267050861 -0.00868909530383 0.0
1.17884077519 -0.0546244894718 0.0
0.982801420718 0.000157820125248 0.0
1.18125016097 -0.0682228787111 0.0
0.977427799174 -0.000113896390944 0.0
1.27097261034 -0.00502234089829 0.0
1.20191365077 -0.0297242679834 0.0
1.13923342519 -0.000291941624497 0.0
1.27072223359 -0.000261651354678 0.0
1.03598612199 -0.0396720100769 0.0
1.02393304981 0.000147194388039 0.0
1.16636101046 -0.036448123993 0.0
1.20610547818 -0.02329406253 0.0
1.22079184871 -0.0208232970014 0.0
1.15507868058 -0.0293793558221 0.0
1.13787029482 -0.0251835455395 0.0
1.18664545318 -0.0240267758213 0.0
1.10333697581 -0.0185849103003 0.0
1.22894496197 -0.0197611847657 0.0
0.997374717879 -0.0002116127741 0.0
1.02999634556 -0.0639692345327 0.0
1.26887700001 -0.000306642592529 0.0
1.0100899032 -0.0496575443908 0.0
1.15995682244 0.000123490621871 0.0
1.26459175508 -4.50113863472e-05 0.0
1.1272173756 -0.0337769136991 0.0
0.936528752827 -0.000230829098317 0.0
1.13030372581 -0.0978149339793 0.0
1.2056361091 -0.019684237952 0.0
1.1553828568 -0.083426562624 0.0
0.998831113614 0.000324521352235 0.0
1.25295492466 0.000169047897294 0.0
1.16364914786 -0.0311372412042 0.0
1.06059656584 -0.0438858002397 0.0
1.25302632258 -5.75885436461e-05 0.0
1.24310420991 -0.0166036603835 0.0
1.25358522817 -0.000419504234422 0.0
1.25329001349 -2.98146843785e-05 0.0
1.02545918702 -0.00369637705202 0.0
1.00255028928 -0.000342280006135 0.0
1.01969205338 -0.0016159588818 0.0
1.0298857035 -0.0061188131166 0.0
1.25253351294 -9.53685947494e-05 0.0
0.996212248499 2.21859878905e-06 0.0
1.06129888349 -0.0133444733367 0.0
1.04427594307 -0.00955438734795 0.0
1.00545371023 -0.00122162846842 0.0
1.25890616771 -0.00671168872735 0.0
1.25729177882 -0.00478147894433 0.0
1.25639667873 -0.0101857169474 0.0
1.25328950839 -0.00281273093749 0.0
1.2503928475 -0.0139094336289 0.0
0.501735534805 -1.12919951908e-05 0.0
0.456411372589 -0.000687632838591 0.0
0.472776443843 -0.00030941768176 0.0
0.463787519934 -0.00115302822033 0.0
0.450229971386 -0.000483718386582 0.0
1.29841844516 -0.00238070130375 0.0
0.476166762147 -0.00164411290414 0.0
1.27365268119 -0.00410382216656 0.0
1.28756645905 -0.00244381005285 0.0
1.30908623151 -0.0029440787987 0.0
1.25289424899 -0.00517940519968 0.0
1.31245470178 5.35612330652e-06 0.0
1.31339120113 2.58152112645e-05 0.0
1.08447788393 -0.01221055418 0.0
1.3126499763 2.82617057459e-05 0.0
0.876709796497 -0.0453189240175 0.0
0.436420056662 -8.40740172986e-05 0.0
0.467706991125 0.00023418915853 0.0
1.28120029152 -0.00398382098791 0.0
0.457962091081 8.70540858517e-05 0.0
0.421730542181 7.87863035998e-05 0.0
0.607634700586 -0.010569950756 0.0
0.435356981726 0.000294272695546 0.0
0.587191306929 -0.00915904914339 0.0
1.31281726982 4.25314961833e-05 0.0
0.431138465913 -0.000513433899478 0.0
0.68214655258 -0.0188408194726 0.0
0.516935438353 -0.00294732923541 0.0
0.454700315196 -3.24619927209e-05 0.0
1.1380175688 -0.11912515555 0.0
1.26275237015 -0.0053455841305 0.0
1.30511701282 -0.00341774412595 0.0
1.31397701887 -0.000205951917215 0.0
0.497486437449 -9.73625515225e-05 0.0
0.51532045829 -0.00185976257631 0.0
0.457559344043 -8.52299502073e-07 0.0
0.49190737826 -0.00273478406344 0.0
0.505554994593 -0.00113110313814 0.0
1.2261765144 -0.00619213901529 0.0
1.2050126668 5.1210131723e-05 0.0
0.918461532362 0.000152244634268 0.0
1.31355035071 1.18873135497e-05 0.0
1.02777607718 -0.0137526673611 0.0
1.02804618185 -0.0181794439141 0.0
1.13551259789 -0.00988821368939 0.0
1.31345016034 3.74552607111e-05 0.0
1.02607168271 -0.0442178350125 0.0
1.23959720305 -0.000328244163027 0.0
1.31394061362 4.77681930395e-06 0.0
0.425167245633 -0.000417466949472 0.0
1.18421227907 -0.021649706601 0.0
1.16863012793 -0.00827065542416 0.0
1.1973067759 -0.00553320932438 0.0
1.31374844557 -4.67747668479e-05 0.0
1.00312720002 -0.0109530425145 0.0
1.05976265269 -0.0129086292467 0.0
1.31462217184 4.81430335881e-06 0.0
0.43135566841 -0.00302262124919 0.0
1.03392724139 -0.000294995676758 0.0
1.18040172135 -0.0620406195989 0.0
0.596928257061 -0.0115751318408 0.0
0.401583773176 -0.000233007172472 0.0
1.25569986922 -0.0120899383212 0.0
1.28765136396 -0.00262766928362 0.0
1.28795189774 -0.00493540511371 0.0
1.27134337895 -0.00936137574611 0.0
1.04653476252 -0.0027077639975 0.0
1.0649606866 -0.00686352225968 0.0
0.473191396693 -0.00256649318713 0.0
1.03822699158 -0.00140774548881 0.0
1.08170558633 -0.0107968109083 0.0
1.05388988502 -0.00412531295762 0.0
0.496797849922 -0.00300367706135 0.0
1.28173795177 -0.00614812576054 0.0