# vtk DataFile Version 2.0
2D Simulation Python
ASCII
DATASET UNSTRUCTURED_GRID
FIELD FieldData 1
NODES 1 2 int
2790 1289

POINTS 2790 double
0.0 1.0 0.0
1.725 1.0 0.0
8.275 1.0 0.0
20.0 1.0 0.0
20.0 0.0 0.0
0.0 0.0 0.0
0.1916666666663293 1.0 0.0
0.3833333333324708 1.0 0.0
0.574999999998553 1.0 0.0
0.7666666666645966 1.0 0.0
0.9583333333312576 1.0 0.0
1.149999999998384 1.0 0.0
1.341666666665662 1.0 0.0
1.533333333332819 1.0 0.0
0.0958333333331406 1.0 0.0
0.2874999999994247 1.0 0.0
0.4791666666655395 1.0 0.0
0.6708333333315728 1.0 0.0
0.8624999999976626 1.0 0.0
1.054166666664886 1.0 0.0
1.245833333332057 1.0 0.0
1.437499999999343 1.0 0.0
1.629166666666455 1.0 0.0
1.92348484848444 1.0 0.0
2.121969696968978 1.0 0.0
2.320454545453434 1.0 0.0
2.518939393937826 1.0 0.0
2.717424242422235 1.0 0.0
2.915909090906411 1.0 0.0
3.1143939393908 1.0 0.0
3.312878787875129 1.0 0.0
3.511363636359531 1.0 0.0
3.709848484843827 1.0 0.0
3.90833333332816 1.0 0.0
4.106818181812215 1.0 0.0
4.305303030296804 1.0 0.0
4.503787878781365 1.0 0.0
4.702272727265711 1.0 0.0
4.900757575750005 1.0 0.0
5.099242424235156 1.0 0.0
5.297727272720327 1.0 0.0
5.496212121205663 1.0 0.0
5.694696969690998 1.0 0.0
5.89318181817668 1.0 0.0
6.09166666666213 1.0 0.0
6.290151515147423 1.0 0.0
6.488636363633031 1.0 0.0
6.687121212118713 1.0 0.0
6.885606060604342 1.0 0.0
7.084090909089381 1.0 0.0
7.282575757574369 1.0 0.0
7.481060606059355 1.0 0.0
7.679545454544343 1.0 0.0
7.878030303029329 1.0 0.0
8.076515151514705 1.0 0.0
1.824242424242199 1.0 0.0
2.022727272726695 1.0 0.0
2.221212121211181 1.0 0.0
2.41969696969563 1.0 0.0
2.618181818180092 1.0 0.0
2.816666666664316 1.0 0.0
3.015151515148624 1.0 0.0
3.213636363633039 1.0 0.0
3.412121212117267 1.0 0.0
3.610606060601583 1.0 0.0
3.809090909085975 1.0 0.0
4.007575757570153 1.0 0.0
4.206060606054539 1.0 0.0
4.404545454539001 1.0 0.0
4.603030303023853 1.0 0.0
4.801515151507715 1.0 0.0
4.999999999992074 1.0 0.0
5.198484848477777 1.0 0.0
5.396969696963081 1.0 0.0
5.595454545448261 1.0 0.0
5.793939393933949 1.0 0.0
5.992424242419331 1.0 0.0
6.190909090904785 1.0 0.0
6.389393939390224 1.0 0.0
6.587878787875795 1.0 0.0
6.786363636361617 1.0 0.0
6.984848484846598 1.0 0.0
7.183333333331875 1.0 0.0
7.381818181816625 1.0 0.0
7.580303030301849 1.0 0.0
7.778787878786936 1.0 0.0
7.977272727272114 1.0 0.0
8.175757575757618 1.0 0.0
8.473728813558951 1.0 0.0
8.672457627118133 1.0 0.0
8.871186440676855 1.0 0.0
9.069915254236154 1.0 0.0
9.268644067794812 1.0 0.0
9.467372881354057 1.0 0.0
9.666101694912944 1.0 0.0
9.864830508471961 1.0 0.0
10.06355932203108 1.0 0.0
10.26228813558986 1.0 0.0
10.46101694914916 1.0 0.0
10.65974576270777 1.0 0.0
10.85847457626706 1.0 0.0
11.05720338982589 1.0 0.0
11.25593220338497 1.0 0.0
11.45466101694402 1.0 0.0
11.65338983050287 1.0 0.0
11.85211864406215 1.0 0.0
12.05084745762035 1.0 0.0
12.24957627117938 1.0 0.0
12.44830508473794 1.0 0.0
12.64703389829659 1.0 0.0
12.84576271185557 1.0 0.0
13.04449152541379 1.0 0.0
13.24322033897301 1.0 0.0
13.44194915253121 1.0 0.0
13.6406779660903 1.0 0.0
13.83940677964874 1.0 0.0
14.03813559320751 1.0 0.0
14.23686440676681 1.0 0.0
14.43559322032663 1.0 0.0
14.63432203388679 1.0 0.0
14.8330508474463 1.0 0.0
15.0317796610067 1.0 0.0
15.23050847456608 1.0 0.0
15.42923728812645 1.0 0.0
15.62796610168606 1.0 0.0
15.82669491524602 1.0 0.0
16.02542372880584 1.0 0.0
16.22415254236431 1.0 0.0
16.42288135592496 1.0 0.0
16.62161016948498 1.0 0.0
16.82033898304518 1.0 0.0
17.01906779660567 1.0 0.0
17.2177966101654 1.0 0.0
17.41652542372565 1.0 0.0
17.61525423728425 1.0 0.0
17.81398305084494 1.0 0.0
18.01271186440355 1.0 0.0
18.21144067796387 1.0 0.0
18.41016949152309 1.0 0.0
18.6088983050827 1.0 0.0
18.80762711864282 1.0 0.0
19.00635593220153 1.0 0.0
19.20508474576211 1.0 0.0
19.40381355932072 1.0 0.0
19.60254237288117 1.0 0.0
19.80127118644013 1.0 0.0
8.374364406779554 1.0 0.0
8.573093220338519 1.0 0.0
8.771822033897509 1.0 0.0
8.970550847456504 1.0 0.0
9.169279661015429 1.0 0.0
9.368008474574502 1.0 0.0
9.566737288133496 1.0 0.0
9.765466101692677 1.0 0.0
9.964194915251602 1.0 0.0
10.16292372881015 1.0 0.0
10.36165254236967 1.0 0.0
10.56038135592849 1.0 0.0
10.75911016948728 1.0 0.0
10.95783898304648 1.0 0.0
11.15656779660554 1.0 0.0
11.35529661016447 1.0 0.0
11.55402542372345 1.0 0.0
11.75275423728253 1.0 0.0
11.95148305084111 1.0 0.0
12.15021186439983 1.0 0.0
12.34894067795883 1.0 0.0
12.54766949151722 1.0 0.0
12.74639830507616 1.0 0.0
12.94512711863486 1.0 0.0
13.14385593219357 1.0 0.0
13.34258474575207 1.0 0.0
13.54131355931069 1.0 0.0
13.7400423728695 1.0 0.0
13.93877118642822 1.0 0.0
14.13749999998697 1.0 0.0
14.33622881354686 1.0 0.0
14.53495762710678 1.0 0.0
14.73368644066656 1.0 0.0
14.93241525422655 1.0 0.0
15.13114406778625 1.0 0.0
15.32987288134641 1.0 0.0
15.52860169490635 1.0 0.0
15.7273305084661 1.0 0.0
15.9260593220261 1.0 0.0
16.12478813558534 1.0 0.0
16.32351694914468 1.0 0.0
16.52224576270527 1.0 0.0
16.72097457626511 1.0 0.0
16.91970338982543 1.0 0.0
17.11843220338561 1.0 0.0
17.31716101694539 1.0 0.0
17.51588983050497 1.0 0.0
17.71461864406449 1.0 0.0
17.91334745762401 1.0 0.0
18.11207627118383 1.0 0.0
18.31080508474307 1.0 0.0
18.50953389830311 1.0 0.0
18.70826271186271 1.0 0.0
18.90699152542239 1.0 0.0
19.10572033898203 1.0 0.0
19.30444915254171 1.0 0.0
19.50317796610107 1.0 0.0
19.70190677966065 1.0 0.0
19.90063559322003 1.0 0.0
20.0 0.7999999999999998 0.0
20.0 0.6000000000013869 0.0
20.0 0.4000000000016644 0.0
20.0 0.2000000000008322 0.0
20.0 0.9000000000000369 0.0
20.0 0.7000000000005904 0.0
20.0 0.5000000000017577 0.0
20.0 0.3000000000012483 0.0
20.0 0.1000000000004161 0.0
19.8 0.0 0.0
19.6 0.0 0.0
19.4 0.0 0.0
19.2 0.0 0.0
19.0 0.0 0.0
18.8 0.0 0.0
18.6 0.0 0.0
18.4 0.0 0.0
18.2 0.0 0.0
18.0 0.0 0.0
17.8 0.0 0.0
17.59999999999999 0.0 0.0
17.4 0.0 0.0
17.2 0.0 0.0
16.99999999999999 0.0 0.0
16.79999999999999 0.0 0.0
16.59999999999999 0.0 0.0
16.4 0.0 0.0
16.2 0.0 0.0
15.99999999999999 0.0 0.0
15.79999999999999 0.0 0.0
15.59999999999999 0.0 0.0
15.4 0.0 0.0
15.2 0.0 0.0
15.0 0.0 0.0
14.79999999999999 0.0 0.0
14.59999999999999 0.0 0.0
14.4 0.0 0.0
14.2 0.0 0.0
13.99999999999999 0.0 0.0
13.8 0.0 0.0
13.59999999999999 0.0 0.0
13.4 0.0 0.0
13.2 0.0 0.0
13.0 0.0 0.0
12.79999999999999 0.0 0.0
12.6 0.0 0.0
12.4 0.0 0.0
12.2 0.0 0.0
11.99999999999999 0.0 0.0
11.8 0.0 0.0
11.6 0.0 0.0
11.4 0.0 0.0
11.2 0.0 0.0
11.0 0.0 0.0
10.8 0.0 0.0
10.6 0.0 0.0
10.4 0.0 0.0
10.2 0.0 0.0
9.999999999999998 0.0 0.0
9.799999999999995 0.0 0.0
9.599999999999998 0.0 0.0
9.399999999999997 0.0 0.0
9.199999999999998 0.0 0.0
8.999999999999996 0.0 0.0
8.799999999999997 0.0 0.0
8.599999999999996 0.0 0.0
8.399999999999999 0.0 0.0
8.199999999999996 0.0 0.0
7.999999999999998 0.0 0.0
7.799999999999997 0.0 0.0
7.599999999999998 0.0 0.0
7.399999999999999 0.0 0.0
7.199999999999998 0.0 0.0
6.999999999999995 0.0 0.0
6.799999999999995 0.0 0.0
6.599999999999998 0.0 0.0
6.399999999999997 0.0 0.0
6.199999999999996 0.0 0.0
5.999999999999998 0.0 0.0
5.799999999999999 0.0 0.0
5.599999999999996 0.0 0.0
5.399999999999995 0.0 0.0
5.199999999999996 0.0 0.0
4.999999999999998 0.0 0.0
4.799999999999997 0.0 0.0
4.599999999999998 0.0 0.0
4.399999999999999 0.0 0.0
4.199999999999999 0.0 0.0
3.999999999999996 0.0 0.0
3.799999999999997 0.0 0.0
3.599999999999998 0.0 0.0
3.399999999999999 0.0 0.0
3.199999999999999 0.0 0.0
3.0 0.0 0.0
2.800000000000001 0.0 0.0
2.599999999999998 0.0 0.0
2.399999999999999 0.0 0.0
2.199999999999996 0.0 0.0
1.999999999999996 0.0 0.0
1.800000000000001 0.0 0.0
1.599999999999998 0.0 0.0
1.399999999999999 0.0 0.0
1.200000000000003 0.0 0.0
1.0 0.0 0.0
0.7999999999999972 0.0 0.0
0.5999999999999979 0.0 0.0
0.3999999999999986 0.0 0.0
0.1999999999999993 0.0 0.0
19.90000000000022 0.0 0.0
19.69999999999997 0.0 0.0
19.49999999999987 0.0 0.0
19.30000000000005 0.0 0.0
19.09999999999999 0.0 0.0
18.89999999999987 0.0 0.0
18.7 0.0 0.0
18.49999999999999 0.0 0.0
18.30000000000001 0.0 0.0
18.09999999999987 0.0 0.0
17.90000000000013 0.0 0.0
17.7 0.0 0.0
17.49999999999987 0.0 0.0
17.30000000000025 0.0 0.0
17.10000000000001 0.0 0.0
16.90000000000005 0.0 0.0
16.70000000000003 0.0 0.0
16.50000000000006 0.0 0.0
16.29999999999997 0.0 0.0
16.09999999999999 0.0 0.0
15.89999999999987 0.0 0.0
15.69999999999999 0.0 0.0
15.49999999999999 0.0 0.0
15.3 0.0 0.0
15.10000000000003 0.0 0.0
14.90000000000005 0.0 0.0
14.69999999999992 0.0 0.0
14.49999999999996 0.0 0.0
14.29999999999999 0.0 0.0
14.10000000000008 0.0 0.0
13.89999999999988 0.0 0.0
13.70000000000003 0.0 0.0
13.50000000000004 0.0 0.0
13.29999999999992 0.0 0.0
13.09999999999995 0.0 0.0
12.90000000000016 0.0 0.0
12.7 0.0 0.0
12.49999999999986 0.0 0.0
12.30000000000003 0.0 0.0
12.10000000000016 0.0 0.0
11.90000000000005 0.0 0.0
11.69999999999994 0.0 0.0
11.49999999999993 0.0 0.0
11.30000000000005 0.0 0.0
11.0999999999999 0.0 0.0
10.90000000000004 0.0 0.0
10.69999999999995 0.0 0.0
10.50000000000012 0.0 0.0
10.29999999999999 0.0 0.0
10.09999999999993 0.0 0.0
9.900000000000077 0.0 0.0
9.699999999999969 0.0 0.0
9.499999999999982 0.0 0.0
9.299999999999969 0.0 0.0
9.100000000000108 0.0 0.0
8.899999999999972 0.0 0.0
8.699999999999958 0.0 0.0
8.499999999999998 0.0 0.0
8.30000000000003 0.0 0.0
8.099999999999977 0.0 0.0
7.899999999999974 0.0 0.0
7.700000000000166 0.0 0.0
7.499999999999854 0.0 0.0
7.299999999999997 0.0 0.0
7.100000000000019 0.0 0.0
6.900000000000002 0.0 0.0
6.699999999999974 0.0 0.0
6.500000000000037 0.0 0.0
6.299999999999981 0.0 0.0
6.100000000000014 0.0 0.0
5.899999999999949 0.0 0.0
5.700000000000049 0.0 0.0
5.499999999999956 0.0 0.0
5.300000000000118 0.0 0.0
5.100000000000005 0.0 0.0
4.900000000000109 0.0 0.0
4.699999999999982 0.0 0.0
4.499999999999936 0.0 0.0
4.300000000000137 0.0 0.0
4.100000000000012 0.0 0.0
3.899999999999888 0.0 0.0
3.69999999999974 0.0 0.0
3.500000000000046 0.0 0.0
3.299999999999965 0.0 0.0
3.099999999999817 0.0 0.0
2.900000000000066 0.0 0.0
2.699999999999793 0.0 0.0
2.500000000000064 0.0 0.0
2.299999999999823 0.0 0.0
[...]
POINT_DATA 2790
VECTORS vector double
1.0 0.0 0.0
0.0 0.0 0.0
0.0 0.0 0.0
0.0 0.0 0.0
1.13283009937 0.0 0.0
1.0 0.0 0.0
0.0 0.0 0.0
0.0 0.0 0.0
0.0 0.0 0.0
0.0 0.0 0.0
0.0 0.0 0.0
0.0 0.0 0.0
0.0 0.0 0.0
0.0 0.0 0.0
0.0 0.0 0.0
0.0 0.0 0.0
0.0 0.0 0.0
0.0 0.0 0.0
0.0 0.0 0.0
0.0 0.0 0.0
0.0 0.0 0.0
0.0 0.0 0.0
0.0 0.0 0.0
0.0 0.0 0.0
0.0 0.0 0.0
0.0 0.0 0.0
0.0 0.0 0.0
0.0 0.0 0.0
0.0 0.0 0.0
0.0 0.0 0.0
0.0 0.0 0.0
0.0 0.0 0.0
0.0 0.0 0.0
0.0 0.0 0.0
0.0 0.0 0.0
0.0 0.0 0.0
0.0 0.0 0.0
0.0 0.0 0.0
0.0 0.0 0.0
0.0 0.0 0.0
0.0 0.0 0.0
0.0 0.0 0.0
0.0 0.0 0.0
0.0 0.0 0.0
0.0 0.0 0.0
0.0 0.0 0.0
0.0 0.0 0.0
0.0 0.0 0.0
0.0 0.0 0.0
0.0 0.0 0.0
0.0 0.0 0.0
0.0 0.0 0.0
0.0 0.0 0.0
0.0 0.0 0.0
0.0 0.0 0.0
0.0 0.0 0.0
0.0 0.0 0.0
0.0 0.0 0.0
0.0 0.0 0.0
0.0 0.0 0.0
0.0 0.0 0.0
0.0 0.0 0.0
0.0 0.0 0.0
0.0 0.0 0.0
0.0 0.0 0.0
0.0 0.0 0.0
0.0 0.0 0.0
0.0 0.0 0.0
0.0 0.0 0.0
0.0 0.0 0.0
0.0 0.0 0.0
0.0 0.0 0.0
0.0 0.0 0.0
0.0 0.0 0.0
0.0 0.0 0.0
0.0 0.0 0.0
0.0 0.0 0.0
0.0 0.0 0.0
0.0 0.0 0.0
0.0 0.0 0.0
0.0 0.0 0.0
0.0 0.0 0.0
0.0 0.0 0.0
0.0 0.0 0.0
0.0 0.0 0.0
0.0 0.0 0.0
0.0 0.0 0.0
0.0 0.0 0.0
0.0 0.0 0.0
0.0 0.0 0.0
0.0 0.0 0.0
0.0 0.0 0.0
0.0 0.0 0.0
0.0 0.0 0.0
0.0 0.0 0.0
0.0 0.0 0.0
0.0 0.0 0.0
0.0 0.0 0.0
0.0 0.0 0.0
0.0 0.0 0.0
0.0 0.0 0.0
0.0 0.0 0.0
0.0 0.0 0.0
0.0 0.0 0.0
0.0 0.0 0.0
0.0 0.0 0.0
0.0 0.0 0.0
0.0 0.0 0.0
0.0 0.0 0.0
0.0 0.0 0.0
0.0 0.0 0.0
0.0 0.0 0.0
0.0 0.0 0.0
0.0 0.0 0.0
0.0 0.0 0.0
0.0 0.0 0.0
0.0 0.0 0.0
0.0 0.0 0.0
0.0 0.0 0.0
0.0 0.0 0.0
0.0 0.0 0.0
0.0 0.0 0.0
0.0 0.0 0.0
0.0 0.0 0.0
0.0 0.0 0.0
0.0 0.0 0.0
0.0 0.0 0.0
0.0 0.0 0.0
0.0 0.0 0.0
0.0 0.0 0.0
0.0 0.0 0.0
0.0 0.0 0.0
0.0 0.0 0.0
0.0 0.0 0.0
0.0 0.0 0.0
0.0 0.0 0.0
0.0 0.0 0.0
0.0 0.0 0.0
0.0 0.0 0.0
0.0 0.0 0.0
0.0 0.0 0.0
0.0 0.0 0.0
0.0 0.0 0.0
0.0 0.0 0.0
0.0 0.0 0.0
0.0 0.0 0.0
0.0 0.0 0.0
0.0 0.0 0.0
0.0 0.0 0.0
0.0 0.0 0.0
0.0 0.0 0.0
0.0 0.0 0.0
0.0 0.0 0.0
0.0 0.0 0.0
0.0 0.0 0.0
0.0 0.0 0.0
0.0 0.0 0.0
0.0 0.0 0.0
0.0 0.0 0.0
0.0 0.0 0.0
0.0 0.0 0.0
0.0 0.0 0.0
0.0 0.0 0.0
0.0 0.0 0.0
0.0 0.0 0.0
0.0 0.0 0.0
0.0 0.0 0.0
0.0 0.0 0.0
0.0 0.0 0.0
0.0 0.0 0.0
0.0 0.0 0.0
0.0 0.0 0.0
0.0 0.0 0.0
0.0 0.0 0.0
0.0 0.0 0.0
0.0 0.0 0.0
0.0 0.0 0.0
0.0 0.0 0.0
0.0 0.0 0.0
0.0 0.0 0.0
0.0 0.0 0.0
0.0 0.0 0.0
0.0 0.0 0.0
0.0 0.0 0.0
0.0 0.0 0.0
0.0 0.0 0.0
0.0 0.0 0.0
0.0 0.0 0.0
0.0 0.0 0.0
0.0 0.0 0.0
0.0 0.0 0.0
0.0 0.0 0.0
0.0 0.0 0.0
0.0 0.0 0.0
0.0 0.0 0.0
0.0 0.0 0.0
0.0 0.0 0.0
0.0 0.0 0.0
0.0 0.0 0.0
0.0 0.0 0.0
0.0 0.0 0.0
0.0 0.0 0.0
0.0 0.0 0.0
0.0 0.0 0.0
0.0 0.0 0.0
0.974668364465 -0.00223834890877 0.0
1.15199096605 -0.00306966501256 0.0
1.13657014891 0.000275082333549 0.0
1.13342013646 0.000291814095263 0.0
0.523835185508 -0.00355669194632 0.0
1.08665055132 0.00629558088862 0.0
1.13993326198 6.24250455376e-05 0.0
1.13424042485 -7.29394993165e-05 0.0
1.13390779665 4.37229227286e-05 0.0
1.13286698701 0.0 0.0
1.13235528654 0.0 0.0
1.13186977438 0.0 0.0
1.1315011838 0.0 0.0
1.13065108386 0.0 0.0
1.12998523694 0.0 0.0
1.1291840387 0.0 0.0
1.12854098664 0.0 0.0
1.12811983145 0.0 0.0
1.12807128113 0.0 0.0
1.12813114504 0.0 0.0
1.12814412945 0.0 0.0
1.12826851122 0.0 0.0
1.12835457843 0.0 0.0
1.12791941638 0.0 0.0
1.12797073062 0.0 0.0
1.12837106437 0.0 0.0
1.12790288504 0.0 0.0
1.12793284728 0.0 0.0
1.12835807661 0.0 0.0
1.1278724234 0.0 0.0
1.12792498119 0.0 0.0
1.12834324743 0.0 0.0
1.12785542666 0.0 0.0
1.12790719334 0.0 0.0
1.12831799179 0.0 0.0
1.12782486591 0.0 0.0
1.12786806359 0.0 0.0
1.12826320339 0.0 0.0
1.12776804032 0.0 0.0
1.12780820118 0.0 0.0
1.12818161087 0.0 0.0
1.12764151172 0.0 0.0
1.12758544385 0.0 0.0
1.12784670608 0.0 0.0
1.1272814961 0.0 0.0
1.12718994111 0.0 0.0
1.12740118709 0.0 0.0
1.12682547602 0.0 0.0
1.12652687993 0.0 0.0
1.12701587248 0.0 0.0
1.1266686514 0.0 0.0
1.12645112478 0.0 0.0
1.12705027696 0.0 0.0
1.12686250736 0.0 0.0
1.12688629066 0.0 0.0
1.12789531429 0.0 0.0
1.12817133074 0.0 0.0
1.12877730711 0.0 0.0
1.13056594215 0.0 0.0
1.13220181887 0.0 0.0
1.13444456576 0.0 0.0
1.13680888745 0.0 0.0
1.13813358556 0.0 0.0
1.13688753586 0.0 0.0
1.13412432671 0.0 0.0
1.1312930294 0.0 0.0
1.12930671374 0.0 0.0
1.12738996177 0.0 0.0
1.12649301603 0.0 0.0
1.12675488715 0.0 0.0
1.12657043547 0.0 0.0
1.12670449239 0.0 0.0
1.12798855729 0.0 0.0
1.12883931985 0.0 0.0
1.13025387568 0.0 0.0
1.13360578134 0.0 0.0
1.13770361382 0.0 0.0
1.14258473536 0.0 0.0
1.1473906561 0.0 0.0
1.15008790891 0.0 0.0
1.14881409429 0.0 0.0
1.14556305577 0.0 0.0
1.14098548402 0.0 0.0
1.13649079902 0.0 0.0
1.13341384139 0.0 0.0
1.13044689137 0.0 0.0
1.12867110477 0.0 0.0
1.12824232442 0.0 0.0
1.12800641022 0.0 0.0
1.12727242936 0.0 0.0
1.1275825113 0.0 0.0
1.12829979381 0.0 0.0
1.12871499045 0.0 0.0
1.13038644189 0.0 0.0
1.13218303555 0.0 0.0
1.13290272798 0.0 0.0
1.13391902323 0.0 0.0
1.13427749666 0.0 0.0
1.13314451968 0.0 0.0
1.13231069695 0.0 0.0
1.13127351832 0.0 0.0
1.12650480818 0.0 0.0
1.10860124513 0.0 0.0
1.08044926679 0.0 0.0
1.05722030946 0.0 0.0
1.03826981936 0.0 0.0
1.01832283262 0.0 0.0
1.0028146636 0.0 0.0
1.13382519457 0.0 0.0
1.13320219317 0.0 0.0
1.13294575177 0.0 0.0
1.13210205596 0.0 0.0
1.13151544428 0.0 0.0
1.13083549796 0.0 0.0
1.13001794778 0.0 0.0
1.12919239646 0.0 0.0
1.12866182722 0.0 0.0
1.12858197163 0.0 0.0
1.12844137659 0.0 0.0
1.12847727643 0.0 0.0
1.1286903492 0.0 0.0
1.12864901471 0.0 0.0
1.1287928917 0.0 0.0
1.12848693797 0.0 0.0
1.1288557761 0.0 0.0
1.12882665327 0.0 0.0
1.12846252503 0.0 0.0
1.12886097832 0.0 0.0
1.12881386324 0.0 0.0
1.12845586397 0.0 0.0
1.12885040131 0.0 0.0
1.1287955775 0.0 0.0
1.12843691463 0.0 0.0
1.12882759559 0.0 0.0
1.12876474736 0.0 0.0
1.12840137405 0.0 0.0
1.12877903185 0.0 0.0
1.12870633265 0.0 0.0
1.12834258828 0.0 0.0
1.128705896 0.0 0.0
1.12859917022 0.0 0.0
1.12817028919 0.0 0.0
1.12842010265 0.0 0.0
1.12824395078 0.0 0.0
1.12779190042 0.0 0.0
1.12802364189 0.0 0.0
1.12786378582 0.0 0.0
1.12739178413 0.0 0.0
1.12765266755 0.0 0.0
1.12770809648 0.0 0.0
1.12729679736 0.0 0.0
1.12762763785 0.0 0.0
1.12782871484 0.0 0.0
1.12761193831 0.0 0.0
1.12826115607 0.0 0.0
1.12890841915 0.0 0.0
1.12921814094 0.0 0.0
1.13055219076 0.0 0.0
1.13229263535 0.0 0.0
1.13415691522 0.0 0.0
1.13675755447 0.0 0.0
1.1380632921 0.0 0.0
1.13781259106 0.0 0.0
1.13620488154 0.0 0.0
1.13336091163 0.0 0.0
1.13104676901 0.0 0.0
1.12917366464 0.0 0.0
1.12766046506 0.0 0.0
1.12743778723 0.0 0.0
1.12751363868 0.0 0.0
1.12735784887 0.0 0.0
1.12819968504 0.0 0.0
1.12927743769 0.0 0.0
1.13030295413 0.0 0.0
1.13283908571 0.0 0.0
1.13666999853 0.0 0.0
1.14109678526 0.0 0.0
1.14636947369 0.0 0.0
1.14951981271 0.0 0.0
1.14983699405 0.0 0.0
1.14771466456 0.0 0.0
1.14380139043 0.0 0.0
1.1392141097 0.0 0.0
1.13530757161 0.0 0.0
1.13222455724 0.0 0.0
1.13054658369 0.0 0.0
1.12920130591 0.0 0.0
1.12894509302 0.0 0.0
1.12846948606 0.0 0.0
1.128145996 0.0 0.0
1.12878709518 0.0 0.0
1.12938180579 0.0 0.0
1.13031007731 0.0 0.0
1.13215391364 0.0 0.0
1.13340439062 0.0 0.0
1.13412664932 0.0 0.0
1.13488458294 0.0 0.0
1.13443723033 0.0 0.0
1.1332179771 0.0 0.0
1.13213506993 0.0 0.0
1.1296483568 0.0 0.0
1.11919271614 0.0 0.0
1.09444938239 0.0 0.0
1.06773426782 0.0 0.0
1.04758938079 0.0 0.0
1.02821149951 0.0 0.0
1.00972997586 0.0 0.0
0.999205952368 0.0 0.0
1.0 0.0 0.0
1.0 0.0 0.0
1.0 0.0 0.0
1.0 0.0 0.0
1.0 0.0 0.0
1.0 0.0 0.0
1.0 0.0 0.0
1.0 0.0 0.0
1.0 0.0 0.0
1.17080114244 -0.0615343657065 0.0
1.1755525376 -0.0151087412505 0.0
1.14583020588 -0.0027601673526 0.0
1.1425376728 -0.000778358426544 0.0
1.13965896864 -0.00260317817868 0.0
1.1395246033 0.00072864479204 0.0
1.13945772854 0.000875811492991 0.0
1.14040133764 0.000665587807079 0.0
1.14020791693 0.000664877767197 0.0
1.14020073358 0.000666201953501 0.0
1.14017999142 0.00067126753003 0.0
1.1401671338 0.000666289976916 0.0
1.14017123901 0.00068048664057 0.0
1.14020137977 0.000522912630749 0.0
1.1393467866 -5.08242275987e-05 0.0
1.13948631682 0.000330624102563 0.0
1.13913716589 0.000532114802082 0.0
1.13884241185 0.000789499340294 0.0
1.13856966177 0.0025672035422 0.0
1.13187661154 -0.00157853963121 0.0
1.14832485741 0.00229966227911 0.0
1.13835797361 0.00100297065184 0.0
1.13957405218 0.00990229510538 0.0
1.14100332153 0.00689955420992 0.0
1.13850911546 0.00359881967118 0.0
1.15243223875 -0.00230742814327 0.0
1.13834684211 0.000689860007101 0.0
1.14282471134 0.0211438646785 0.0
1.13897756753 -0.000529760783572 0.0
1.17369315831 0.00069733625937 0.0
1.13478933494 -0.00704234641927 0.0
1.1391921461 -0.0104927294699 0.0
1.15212744085 -0.0190797133467 0.0
1.15054648193 -0.00503515039333 0.0
1.22017837723 -0.165511129273 0.0
1.12997685689 -0.00218933876396 0.0
1.12885500676 -0.000519261099219 0.0
1.15165784849 0.00931721842033 0.0
1.12926420564 0.00170896996538 0.0
1.13103096209 0.00415679861677 0.0
1.13677874257 -0.00122831135169 0.0
1.13523861738 0.00231157370385 0.0
1.12844497445 0.00130210847877 0.0
1.12767445524 -0.000133660743164 0.0
1.14036873615 0.00451913075455 0.0
1.13049782767 0.00180420103863 0.0
1.12878165535 0.000818017170896 0.0
1.12837053909 6.41859181865e-05 0.0
1.12841517578 -0.000104617308419 0.0
1.12880314627 -0.000414565865741 0.0
1.12937718528 -0.000379829932539 0.0
1.12954920926 -0.000285146493322 0.0
1.19789132113 -0.0317213623387 0.0
1.12958619644 -0.000231893360734 0.0
1.1296209951 -0.000212408864365 0.0
1.12964291636 -0.000200637442207 0.0
1.13241084791 -0.00917394743072 0.0
1.12965996302 -0.000188508452077 0.0
1.1302281887 0.00139024537537 0.0
1.12109470387 -0.0361904692822 0.0
1.12967023352 -0.000164549993799 0.0
1.12966658073 -4.63243705294e-05 0.0
1.1273553452 0.000798297530355 0.0
1.12933260719 5.20235668506e-06 0.0
1.12700718942 -0.000246930677446 0.0
1.12319616693 -0.000979132037534 0.0
1.12411689345 0.000518495459111 0.0
1.116375133 0.0317348709383 0.0
1.12265805738 -0.00107627039709 0.0
1.12230314169 0.00352251234334 0.0
1.11928173029 0.00504112109162 0.0
1.12305199347 0.00672811717731 0.0
1.12259321112 0.00283730180555 0.0
1.12412366756 0.00226592745136 0.0
1.12080090989 0.0172559283598 0.0
1.12450714385 0.0027895141263 0.0
1.12722810692 0.00221886920863 0.0
1.12863380796 0.00158068391274 0.0
1.12870368046 0.00144306658873 0.0
1.12852105062 0.000868835889765 0.0
1.12925439262 0.00173492899176 0.0
1.12911779697 0.0021356508707 0.0
1.12905509325 0.00217702803215 0.0
1.1290191601 0.00219988256989 0.0
1.12901657304 0.00221550956029 0.0
1.12927346021 -0.00103117249541 0.0
1.12902863073 0.00223803269812 0.0
1.12905933592 0.00226256470503 0.0
1.12906385655 0.00239769699692 0.0
1.12872074702 0.00314957531124 0.0
1.13259700873 -0.00123700765091 0.0
1.03517403676 -0.0387132902449 0.0
1.13390142143 -0.00116466668788 0.0
1.13928513591 -0.00459872046929 0.0
1.15263518566 -0.00511672924389 0.0
1.13640624014 -0.00730070370702 0.0
1.12937703398 -0.00387707154535 0.0
1.09710989816 -0.0123342992626 0.0
1.12435735541 -0.011027978182 0.0
1.11356407431 -0.0138797956078 0.0
1.10284523157 -0.0207795280173 0.0
1.16261344238 -0.0589274997653 0.0
1.0511017101 0.00880638452727 0.0
1.13323241761 -0.000983676846988 0.0
1.12765766701 -5.49144945145e-05 0.0
1.12756218991 6.3973815968e-05 0.0
1.12121689583 -0.0182166351844 0.0
1.12864878142 -0.000130511974231 0.0
1.07246173838 -0.0262488270258 0.0
1.12774397636 0.000352291807997 0.0
1.12896351589 -8.34455229529e-06 0.0
1.12910383586 0.000116378269529 0.0
1.12936066862 0.00108302566191 0.0
1.03481748662 -0.00178826310103 0.0
1.1291444088 0.000115829855129 0.0
1.13449841329 0.00406706896354 0.0
1.12916947164 0.00012740888333 0.0
1.12918487357 0.000128178390324 0.0
1.13420442805 -0.00211189799247 0.0
1.1291940318 0.000129426760728 0.0
1.12912377393 0.000141257213791 0.0
1.12903793621 0.000182048553269 0.0
1.02389211427 -0.00503056114007 0.0
1.1272015001 -0.000775282017512 0.0
1.12879573981 1.72645141347e-05 0.0
1.04319280386 -0.00688300406987 0.0
1.00486935796 -0.00142037124768 0.0
1.13031215011 -0.00107914847673 0.0
1.02855039841 -0.00266136285789 0.0
1.12727024641 0.000489180865921 0.0
1.13525477439 0.000920967322632 0.0
1.02809956409 -0.00291463317842 0.0
1.02779695692 -0.00292365510851 0.0
1.02752602254 -0.00289669160227 0.0
1.02728261611 -0.00287270627495 0.0
1.12961283354 0.00188518173803 0.0
1.1305347406 0.00212217210388 0.0
1.02706594049 -0.00284914581544 0.0
1.02688045925 -0.00281963710401 0.0
1.02677991385 -0.00286506070962 0.0
1.02726417603 -0.00398115474498 0.0
1.02824150759 -0.00260602512592 0.0
1.14064034389 0.00821636643777 0.0
1.12799778062 9.1241294612e-05 0.0
1.02811745011 -0.00241329093278 0.0
1.02778079311 -0.00246468875692 0.0
0.848479391913 0.00184411418668 0.0
1.02468454811 -0.00126960417309 0.0
1.0033069341 -0.000759145214642 0.0
1.02188313241 -0.00177630914891 0.0
1.01389129803 0.00390522413886 0.0
1.01790039363 0.000112861138011 0.0
1.01616602784 0.00442508506082 0.0
1.02099399339 -0.00277621534204 0.0
1.00104141317 0.014862034917 0.0
1.01973854466 -0.00323166938691 0.0
0.740088452473 0.00529617829352 0.0
0.905482104736 -0.00409100335133 0.0
0.865579014107 0.00181976773326 0.0
1.14420721074 -0.00443848354225 0.0
1.12884209893 -0.000937862887197 0.0
1.13198112753 -0.00331790077256 0.0
1.15335895107 0.00146218485968 0.0
1.13245770357 -0.00400924663821 0.0
1.14024787502 -0.000208639896186 0.0
0.984868424536 -0.020377640345 0.0
1.11415091986 -0.0354954250696 0.0
1.13211194425 -0.000528848762345 0.0
1.0361208661 -0.0600048460647 0.0
1.14631611183 -0.00327783467655 0.0
1.13863537322 -0.00119040979113 0.0
1.04101045102 -0.0188996714051 0.0
0.890647018525 0.000434917672568 0.0
1.11243015238 -0.0766261883791 0.0
0.969319028959 -0.0473735797081 0.0
0.947087807404 -0.0104915251448 0.0
1.12769530827 -0.000133735219061 0.0
1.12747147748 -5.40396628941e-05 0.0
1.12829143049 -0.000179870074506 0.0
1.12755754094 9.34020909936e-05 0.0
1.28610464995 -0.314799567179 0.0
1.12863419495 0.000587198863819 0.0
1.12860623792 -0.000147878367402 0.0
1.13167013036 0.00194731253772 0.0
1.12871032471 -9.9399079481e-05 0.0
1.12876892162 -9.88661178221e-05 0.0
1.13515304515 8.88731402426e-05 0.0
1.12712016188 8.28189297264e-05 0.0
1.10325992558 -0.0215429699738 0.0
1.12880238803 0.00103871396914 0.0
1.13206241752 0.00149484320717 0.0
1.12879907099 -9.4341594812e-05 0.0
1.13531817345 0.00433547699276 0.0
1.12831632877 0.000427338958887 0.0
1.13125987123 -0.0021892488986 0.0
1.12857513685 -0.000430038093903 0.0
1.1288195861 -9.23768624227e-05 0.0
1.12883765504 -9.0416902288e-05 0.0
1.12882529951 -4.00700423384e-05 0.0
1.12868275188 -3.88277379879e-05 0.0
1.12869915273 -0.000461490547551 0.0
1.13102396517 -0.00096402104999 0.0
1.14530918564 -0.00941620806571 0.0
0.823891652389 0.00514327806497 0.0
0.810645507592 0.00327341459525 0.0
0.839223796864 -0.0141588333491 0.0
0.82397496144 0.000440094599272 0.0
0.857991608728 0.00332056995884 0.0
0.857258179078 0.00309099220497 0.0
0.857149168603 0.00304196778057 0.0
1.16893258233 -0.0097748692391 0.0
0.857139306063 0.00302614800955 0.0
0.85715926041 0.00301236514218 0.0
0.857209963518 0.00300169167344 0.0
1.13545282158 0.000511938597596 0.0
1.13824695042 -0.0111539521132 0.0
0.857297497833 0.00298993063389 0.0
1.138692054 -0.00172423157742 0.0
0.857404635428 0.00295778045933 0.0
0.858031451684 0.00243808703349 0.0
0.860601270438 0.00336890044896 0.0
0.861000762225 0.00356707809334 0.0
1.13681094832 0.00131311434891 0.0
0.861181986325 0.00358247863306 0.0
1.13715672951 0.00106151063286 0.0
0.861585086109 0.0023460136668 0.0
0.86095490979 0.00371105831215 0.0
1.13714143268 0.000974446009079 0.0
0.86739056125 -0.00202959913287 0.0
1.13710676751 0.000950943859878 0.0
0.869815822092 0.000710913675782 0.0
0.85686515631 0.0044320510236 0.0
1.13707716984 0.000933253400933 0.0
0.87141437981 -0.00475170940694 0.0
0.808961058145 0.0114304975576 0.0
1.13704996693 0.000917118631805 0.0
0.838760474172 -0.00411201496801 0.0
1.13704049125 0.000902567183493 0.0
1.13704547537 0.000803921704513 0.0
0.860476673967 0.00420228841494 0.0
1.13683867251 0.000608760327744 0.0
1.1348063172 0.000248610199229 0.0
1.1434468444 -0.0020475983397 0.0
0.847454993836 0.00354364386651 0.0
0.860001656484 0.00356263289948 0.0
1.13429605748 0.00055361244686 0.0
1.13417659487 0.000750767294102 0.0
0.863598547911 -0.00157540906014 0.0
0.852824171355 0.00610048188742 0.0
1.13375498776 0.00218104088616 0.0
0.862998240693 -0.00215129260811 0.0
0.754501031128 0.0160449294341 0.0
1.13420433403 0.00387194855622 0.0
1.15024344179 0.00637673393622 0.0
0.845057002489 0.000675476488179 0.0
1.13355153389 -0.00576892952254 0.0
1.13327300121 0.000765977271609 0.0
1.13323665493 0.00310418271688 0.0
1.14003759009 0.0036909832024 0.0
1.13390677447 0.00897122364557 0.0
1.13311838428 0.000332752741876 0.0
1.16784410891 0.0137119080582 0.0
1.13401744807 -0.00186068881072 0.0
1.13404004352 -0.00359203561333 0.0
1.15309981914 -0.00720184691829 0.0
1.18147389667 -0.0368031452358 0.0
1.18020410403 -0.0503729367324 0.0
1.13427199397 -0.00133684666849 0.0
1.14519350485 -0.00585230467321 0.0
1.14238572077 -0.0016790725855 0.0
1.13393862108 0.000146171981247 0.0
1.15365142327 0.0220590068372 0.0
1.13385075171 0.00455001868901 0.0
1.13427614444 0.00190575549196 0.0
1.14206570663 0.00416824788517 0.0
1.13324263973 8.12230830966e-05 0.0
0.865660645237 0.00291707686642 0.0
1.13267761829 -8.94743269881e-05 0.0
0.87058903039 0.00280000147629 0.0
0.820750236978 0.0169107209091 0.0
0.827557803013 -0.00187182584992 0.0
1.14278270865 0.0108805388159 0.0
0.869222094597 0.00501085406313 0.0
0.869524714333 -0.00111543060394 0.0
1.13492601275 0.000380314162954 0.0
1.13404741104 -0.000288950782634 0.0
0.850080988309 0.00601197574309 0.0
0.874926465414 -0.00240084299453 0.0
1.13452256316 -0.00102172598738 0.0
1.12865705884 0.000152391855549 0.0
1.13465062916 -0.00120927571927 0.0
1.13470997318 -0.00220216232645 0.0
0.848698630544 0.00480922183257 0.0
1.13634603612 -0.00172597969947 0.0
1.13635660318 -0.00153777868148 0.0
1.13635555807 -0.00151148490841 0.0
1.13637407366 -0.00148572012856 0.0
1.13640792539 -0.00147687446475 0.0
1.13644018891 -0.00146788809577 0.0
1.13652597936 -0.00146730094265 0.0
1.13549955518 -0.00335483473865 0.0
1.13641681103 -0.00127907081507 0.0
1.13597082357 -0.00129597237877 0.0
1.13898759899 -0.00213108640867 0.0
1.12845002892 -0.00136489234491 0.0
1.12890058726 0.000139965137241 0.0
0.853254596701 0.00638879495752 0.0
0.86617054219 -0.00215645944063 0.0
0.86940254951 -0.00284614708418 0.0
0.869238875862 -0.00268823017466 0.0
0.868996528573 -0.0027928714032 0.0
1.1289230597 6.48771902331e-05 0.0
0.868906225008 -0.00260449273249 0.0
0.866318849561 -0.00200272941287 0.0
0.866047372406 -0.00180513226762 0.0
0.865984790382 -0.00180293898687 0.0
0.865943446679 -0.00179824549902 0.0
0.865936617395 -0.00179554241773 0.0
1.12891493424 4.78613641704e-05 0.0
0.865963360757 -0.00178766550078 0.0
0.866032357841 -0.00176145812396 0.0
0.866250485833 -0.00167304450989 0.0
0.872443226398 0.000660149604278 0.0
1.12890224778 4.0261405855e-05 0.0
1.12888098544 3.25614430619e-05 0.0
1.13508516536 -0.00356162989052 0.0
1.12883583118 1.60225660061e-05 0.0
1.15132318202 -0.00143598655281 0.0
1.13961023538 -0.00619682906469 0.0
1.12877511604 -3.441615972e-06 0.0
1.00542645201 -0.0114437249925 0.0
1.08006654403 -0.0206375166677 0.0
1.12923022467 -0.000628056753186 0.0
1.12852933143 -0.000107525801744 0.0
1.2273588176 -0.0875969208131 0.0
1.12805827517 -0.000145314080492 0.0
1.12746203396 -3.82197640008e-05 0.0
1.13842210416 -0.00163137584443 0.0
1.12742582726 4.42183349724e-05 0.0
1.12794145377 0.000329761585574 0.0
1.13354910796 -0.000395611414375 0.0
1.12993639886 0.00085928584497 0.0
1.13660634362 0.00186931134685 0.0
1.12477712313 -0.00530973302019 0.0
1.13451566913 -0.000627078797671 0.0
1.12714035775 -0.000217493323769 0.0
1.14556378009 0.00379311444035 0.0
1.12974158507 -0.000951272960428 0.0
1.12773604184 0.000540543199336 0.0
1.13364498388 0.000953884876749 0.0
1.12974223239 -0.000304321107411 0.0
1.1296752715 -0.000414883860367 0.0
1.13065541914 -0.00193749507824 0.0
1.12978080711 -0.000303497596961 0.0
1.12945567696 -0.000493573431718 0.0