# vtk DataFile Version 2.0
2D Simulation Python
ASCII
DATASET UNSTRUCTURED_GRID
FIELD FieldData 1
NODES 1 2 int
14968 7299

POINTS 14968 double
0.0 1.0 0.0
1.725 1.0 0.0
8.275 1.0 0.0
10.0 1.0 0.0
10.0 0.0 0.0
0.0 0.0 0.0
0.05948275862057954 1.0 0.0
0.1189655172411507 1.0 0.0
0.1784482758617532 1.0 0.0
0.2379310344823185 1.0 0.0
0.2974137931028384 1.0 0.0
0.3568965517233564 1.0 0.0
0.4163793103438745 1.0 0.0
0.475862068964385 1.0 0.0
0.535344827584889 1.0 0.0
0.5948275862053855 1.0 0.0
0.654310344825882 1.0 0.0
0.7137931034463786 1.0 0.0
0.7732758620668752 1.0 0.0
0.8327586206874149 1.0 0.0
0.8922413793081027 1.0 0.0
0.9517241379289384 1.0 0.0
1.011206896549752 1.0 0.0
1.070689655170612 1.0 0.0
1.130172413791474 1.0 0.0
1.189655172412335 1.0 0.0
1.249137931033183 1.0 0.0
1.308620689654105 1.0 0.0
1.368103448274985 1.0 0.0
1.427586206895818 1.0 0.0
1.487068965516628 1.0 0.0
1.546551724137449 1.0 0.0
1.606034482758285 1.0 0.0
1.665517241379139 1.0 0.0
0.02974137931029072 1.0 0.0
0.08922413793086324 1.0 0.0
0.1487068965514534 1.0 0.0
0.208189655172049 1.0 0.0
0.2676724137925698 1.0 0.0
0.3271551724130939 1.0 0.0
0.3866379310336222 1.0 0.0
0.4461206896541293 1.0 0.0
0.5056034482746439 1.0 0.0
0.5650862068951479 1.0 0.0
0.624568965515645 1.0 0.0
0.6840517241361357 1.0 0.0
0.7435344827566197 1.0 0.0
0.8030172413771515 1.0 0.0
0.8624999999976763 1.0 0.0
0.9219827586185091 1.0 0.0
0.9814655172393557 1.0 0.0
1.040948275860181 1.0 0.0
1.100431034481038 1.0 0.0
1.159913793101895 1.0 0.0
1.219396551722753 1.0 0.0
1.278879310343654 1.0 0.0
1.338362068964579 1.0 0.0
1.397844827585388 1.0 0.0
1.457327586206215 1.0 0.0
1.516810344826985 1.0 0.0
1.576293103447828 1.0 0.0
1.635775862068708 1.0 0.0
1.695258620689603 1.0 0.0
1.784545454545345 1.0 0.0
1.844090909090676 1.0 0.0
1.903636363635991 1.0 0.0
1.963181818181336 1.0 0.0
2.022727272726716 1.0 0.0
2.082272727272112 1.0 0.0
2.141818181817408 1.0 0.0
2.201363636362702 1.0 0.0
2.260909090908037 1.0 0.0
2.320454545453433 1.0 0.0
2.379999999998759 1.0 0.0
2.439545454544053 1.0 0.0
2.499090909089358 1.0 0.0
2.558636363634754 1.0 0.0
2.618181818180109 1.0 0.0
2.677727272725404 1.0 0.0
2.737272727270631 1.0 0.0
2.796818181815906 1.0 0.0
2.856363636361191 1.0 0.0
2.915909090906408 1.0 0.0
2.975454545451703 1.0 0.0
3.034999999997049 1.0 0.0
3.094545454542377 1.0 0.0
3.154090909087591 1.0 0.0
3.21363636363288 1.0 0.0
3.273181818178196 1.0 0.0
3.332727272723555 1.0 0.0
3.392272727268849 1.0 0.0
3.451818181814208 1.0 0.0
3.511363636359524 1.0 0.0
3.570909090904812 1.0 0.0
3.630454545450026 1.0 0.0
3.689999999995355 1.0 0.0
3.749545454540702 1.0 0.0
3.809090909085996 1.0 0.0
3.868636363631291 1.0 0.0
3.928181818176585 1.0 0.0
3.987727272721861 1.0 0.0
4.047272727267021 1.0 0.0
4.106818181812208 1.0 0.0
4.166363636357625 1.0 0.0
4.225909090903122 1.0 0.0
4.285454545448432 1.0 0.0
4.34499999999356 1.0 0.0
4.404545454538917 1.0 0.0
4.464090909084414 1.0 0.0
4.523636363629791 1.0 0.0
4.583181818174936 1.0 0.0
4.642727272720208 1.0 0.0
4.702272727265705 1.0 0.0
4.761818181811142 1.0 0.0
4.821363636356348 1.0 0.0
4.880909090901557 1.0 0.0
4.940454545446997 1.0 0.0
4.999999999992493 1.0 0.0
5.059545454538018 1.0 0.0
5.119090909083717 1.0 0.0
5.17863636362933 1.0 0.0
5.238181818174827 1.0 0.0
5.297727272720321 1.0 0.0
5.357272727265989 1.0 0.0
5.416818181811662 1.0 0.0
5.476363636357158 1.0 0.0
5.535909090902654 1.0 0.0
5.595454545448262 1.0 0.0
5.65499999999396 1.0 0.0
5.714545454539491 1.0 0.0
5.774090909085032 1.0 0.0
5.83363636363093 1.0 0.0
5.893181818176673 1.0 0.0
5.952727272722171 1.0 0.0
6.012272727267668 1.0 0.0
6.071818181813491 1.0 0.0
6.131363636359353 1.0 0.0
6.190909090904849 1.0 0.0
6.250454545450346 1.0 0.0
6.309999999996052 1.0 0.0
6.369545454541951 1.0 0.0
6.429090909087529 1.0 0.0
6.488636363633026 1.0 0.0
6.548181818178611 1.0 0.0
6.60772727272451 1.0 0.0
6.667272727270209 1.0 0.0
6.726818181815705 1.0 0.0
6.786363636361202 1.0 0.0
6.845909090907071 1.0 0.0
6.905454545452889 1.0 0.0
6.964999999998385 1.0 0.0
7.024545454543881 1.0 0.0
7.084090909089378 1.0 0.0
7.143636363634876 1.0 0.0
7.20318181818037 1.0 0.0
7.262727272725868 1.0 0.0
7.322272727271365 1.0 0.0
7.381818181816859 1.0 0.0
7.441363636362357 1.0 0.0
7.500909090907854 1.0 0.0
7.560454545453348 1.0 0.0
7.619999999998846 1.0 0.0
7.679545454544343 1.0 0.0
7.739090909089839 1.0 0.0
7.798636363635335 1.0 0.0
7.858181818180832 1.0 0.0
7.917727272726328 1.0 0.0
7.977272727271824 1.0 0.0
8.036818181817441 1.0 0.0
8.09636363636334 1.0 0.0
8.155909090909008 1.0 0.0
8.215454545454504 1.0 0.0
1.754772727272673 1.0 0.0
1.814318181818009 1.0 0.0
1.873863636363333 1.0 0.0
1.933409090908672 1.0 0.0
1.992954545454031 1.0 0.0
2.052499999999414 1.0 0.0
2.112045454544734 1.0 0.0
2.171590909090055 1.0 0.0
2.231136363635354 1.0 0.0
2.290681818180733 1.0 0.0
2.35022727272609 1.0 0.0
2.409772727271409 1.0 0.0
2.469318181816729 1.0 0.0
2.528863636362083 1.0 0.0
2.588409090907435 1.0 0.0
2.647954545452764 1.0 0.0
2.70749999999803 1.0 0.0
2.767045454543256 1.0 0.0
2.826590909088563 1.0 0.0
2.886136363633805 1.0 0.0
2.945681818179043 1.0 0.0
3.005227272724398 1.0 0.0
3.064772727269736 1.0 0.0
3.124318181814993 1.0 0.0
3.183863636360237 1.0 0.0
3.243409090905498 1.0 0.0
3.302954545450869 1.0 0.0
3.362499999996201 1.0 0.0
3.422045454541534 1.0 0.0
3.481590909086889 1.0 0.0
3.541136363632178 1.0 0.0
3.600681818177425 1.0 0.0
3.660227272722711 1.0 0.0
3.719772727268038 1.0 0.0
3.779318181813342 1.0 0.0
3.838863636358643 1.0 0.0
3.898409090903943 1.0 0.0
3.957954545449228 1.0 0.0
4.017499999994459 1.0 0.0
4.077045454539567 1.0 0.0
4.136590909084866 1.0 0.0
4.196136363630398 1.0 0.0
4.255681818175789 1.0 0.0
4.31522727272101 1.0 0.0
4.374772727266199 1.0 0.0
4.434318181811665 1.0 0.0
4.493863636357126 1.0 0.0
4.55340909090234 1.0 0.0
4.612954545447561 1.0 0.0
4.672499999992919 1.0 0.0
4.732045454538429 1.0 0.0
4.791590909083769 1.0 0.0
4.851136363628941 1.0 0.0
4.910681818174305 1.0 0.0
4.970227272719745 1.0 0.0
5.029772727265215 1.0 0.0
5.089318181810858 1.0 0.0
5.148863636356518 1.0 0.0
5.208409090902078 1.0 0.0
5.267954545447563 1.0 0.0
5.32749999999314 1.0 0.0
5.387045454538812 1.0 0.0
5.446590909084395 1.0 0.0
5.506136363629908 1.0 0.0
5.565681818175434 1.0 0.0
5.625227272721118 1.0 0.0
5.68477272726672 1.0 0.0
5.744318181812282 1.0 0.0
5.803863636357981 1.0 0.0
5.863409090903753 1.0 0.0
5.922954545449448 1.0 0.0
5.98249999999492 1.0 0.0
6.042045454540572 1.0 0.0
6.10159090908641 1.0 0.0
6.161136363632073 1.0 0.0
6.220681818177569 1.0 0.0
6.280227272723183 1.0 0.0
6.339772727268974 1.0 0.0
6.399318181814714 1.0 0.0
6.45886363636027 1.0 0.0
6.518409090905834 1.0 0.0
6.577954545451583 1.0 0.0
6.637499999997363 1.0 0.0
6.697045454542931 1.0 0.0
6.756590909088454 1.0 0.0
6.8161363636342 1.0 0.0
6.875681818179999 1.0 0.0
6.935227272725616 1.0 0.0
6.994772727271133 1.0 0.0
7.054318181816615 1.0 0.0
7.113863636362105 1.0 0.0
7.173409090907585 1.0 0.0
7.232954545453119 1.0 0.0
7.292499999998594 1.0 0.0
7.352045454544166 1.0 0.0
7.411590909089607 1.0 0.0
7.471136363635079 1.0 0.0
7.530681818180621 1.0 0.0
7.590227272726104 1.0 0.0
7.649772727271595 1.0 0.0
7.709318181817098 1.0 0.0
7.768863636362564 1.0 0.0
7.828409090908048 1.0 0.0
7.88795454545358 1.0 0.0
7.947499999999069 1.0 0.0
8.007045454544631 1.0 0.0
8.066590909090369 1.0 0.0
8.126136363636165 1.0 0.0
8.185681818181749 1.0 0.0
8.245227272727199 1.0 0.0
8.334482758620055 1.0 0.0
8.393965517240051 1.0 0.0
8.453448275859904 1.0 0.0
8.51293103448045 1.0 0.0
8.572413793100301 1.0 0.0
8.631896551720153 1.0 0.0
8.6913793103407 1.0 0.0
8.750862068961245 1.0 0.0
8.810344827581792 1.0 0.0
8.869827586202339 1.0 0.0
8.929310344822884 1.0 0.0
8.988793103443431 1.0 0.0
9.048275862063978 1.0 0.0
9.107758620684523 1.0 0.0
9.16724137930507 1.0 0.0
9.226724137925617 1.0 0.0
9.286206896546162 1.0 0.0
9.345689655167401 1.0 0.0
9.405172413788595 1.0 0.0
9.46465517240963 1.0 0.0
9.524137931030667 1.0 0.0
9.583620689651704 1.0 0.0
9.643103448272907 1.0 0.0
9.702586206894148 1.0 0.0
9.762068965515388 1.0 0.0
9.821551724136627 1.0 0.0
9.881034482757867 1.0 0.0
9.940517241378963 1.0 0.0
8.304741379310085 1.0 0.0
8.364224137930028 1.0 0.0
8.423706896549978 1.0 0.0
8.48318965517026 1.0 0.0
8.542672413790376 1.0 0.0
8.602155172410113 1.0 0.0
8.661637931030402 1.0 0.0
8.721120689651029 1.0 0.0
8.78060344827138 1.0 0.0
8.84008620689213 1.0 0.0
8.899568965512502 1.0 0.0
8.959051724133055 1.0 0.0
9.018534482753648 1.0 0.0
9.078017241374363 1.0 0.0
9.137499999994688 1.0 0.0
9.196982758615343 1.0 0.0
9.256465517235805 1.0 0.0
9.315948275856895 1.0 0.0
9.375431034477998 1.0 0.0
9.434913793099138 1.0 0.0
9.494396551720149 1.0 0.0
9.55387931034146 1.0 0.0
9.613362068962203 1.0 0.0
9.672844827583809 1.0 0.0
9.73232758620488 1.0 0.0
9.791810344826095 1.0 0.0
9.851293103447228 1.0 0.0
9.910775862068462 1.0 0.0
9.970258620689481 1.0 0.0
10.0 0.9411764705879904 0.0
10.0 0.882352941175982 0.0
10.0 0.8235294117645425 0.0
10.0 0.764705882353186 0.0
10.0 0.7058823529418295 0.0
10.0 0.6470588235304731 0.0
10.0 0.5882352941191167 0.0
10.0 0.5294117647077601 0.0
10.0 0.4705882352960771 0.0
10.0 0.4117647058840672 0.0
10.0 0.3529411764720576 0.0
10.0 0.2941176470600479 0.0
10.0 0.2352941176480381 0.0
10.0 0.1764705882360285 0.0
10.0 0.1176470588240187 0.0
10.0 0.05882352941200908 0.0
10.0 0.9705882352939621 0.0
10.0 0.9117647058820033 0.0
10.0 0.8529411764702793 0.0
10.0 0.7941176470588772 0.0
10.0 0.7352941176474532 0.0
10.0 0.6764705882361493 0.0
10.0 0.6176470588248275 0.0
10.0 0.5588235294134586 0.0
10.0 0.5000000000020175 0.0
10.0 0.4411764705900721 0.0
10.0 0.3823529411780624 0.0
10.0 0.3235294117660528 0.0
10.0 0.264705882354043 0.0
10.0 0.2058823529420333 0.0
10.0 0.1470588235300236 0.0
10.0 0.0882352941180139 0.0
10.0 0.02941176470600448 0.0
9.940119760479043 0.0 0.0
9.880239520958083 0.0 0.0
9.820359281437126 0.0 0.0
9.760479041916167 0.0 0.0
9.70059880239521 0.0 0.0
9.640718562874252 0.0 0.0
9.580838323353293 0.0 0.0
[...]
POINT_DATA 14968
VECTORS vector double
0.0 0.0 0.0
0.0 0.0 0.0
0.0 0.0 0.0
0.0 0.0 0.0
-2.82563474376 0.0 0.0
2.0 0.0 0.0
0.0 0.0 0.0
0.0 0.0 0.0
0.0 0.0 0.0
0.0 0.0 0.0
0.0 0.0 0.0
0.0 0.0 0.0
0.0 0.0 0.0
0.0 0.0 0.0
0.0 0.0 0.0
0.0 0.0 0.0
0.0 0.0 0.0
0.0 0.0 0.0
0.0 0.0 0.0
0.0 0.0 0.0
0.0 0.0 0.0
0.0 0.0 0.0
0.0 0.0 0.0
0.0 0.0 0.0
0.0 0.0 0.0
0.0 0.0 0.0
0.0 0.0 0.0
0.0 0.0 0.0
0.0 0.0 0.0
0.0 0.0 0.0
0.0 0.0 0.0
0.0 0.0 0.0
0.0 0.0 0.0
0.0 0.0 0.0
0.0 0.0 0.0
0.0 0.0 0.0
0.0 0.0 0.0
0.0 0.0 0.0
0.0 0.0 0.0
0.0 0.0 0.0
0.0 0.0 0.0
0.0 0.0 0.0
0.0 0.0 0.0
0.0 0.0 0.0
0.0 0.0 0.0
0.0 0.0 0.0
0.0 0.0 0.0
0.0 0.0 0.0
0.0 0.0 0.0
0.0 0.0 0.0
0.0 0.0 0.0
0.0 0.0 0.0
0.0 0.0 0.0
0.0 0.0 0.0
0.0 0.0 0.0
0.0 0.0 0.0
0.0 0.0 0.0
0.0 0.0 0.0
0.0 0.0 0.0
0.0 0.0 0.0
0.0 0.0 0.0
0.0 0.0 0.0
0.0 0.0 0.0
0.0 0.0 0.0
0.0 0.0 0.0
0.0 0.0 0.0
0.0 0.0 0.0
0.0 0.0 0.0
0.0 0.0 0.0
0.0 0.0 0.0
0.0 0.0 0.0
0.0 0.0 0.0
0.0 0.0 0.0
0.0 0.0 0.0
0.0 0.0 0.0
0.0 0.0 0.0
0.0 0.0 0.0
0.0 0.0 0.0
0.0 0.0 0.0
0.0 0.0 0.0
0.0 0.0 0.0
0.0 0.0 0.0
0.0 0.0 0.0
0.0 0.0 0.0
0.0 0.0 0.0
0.0 0.0 0.0
0.0 0.0 0.0
0.0 0.0 0.0
0.0 0.0 0.0
0.0 0.0 0.0
0.0 0.0 0.0
0.0 0.0 0.0
0.0 0.0 0.0
0.0 0.0 0.0
0.0 0.0 0.0
0.0 0.0 0.0
0.0 0.0 0.0
0.0 0.0 0.0
0.0 0.0 0.0
0.0 0.0 0.0
0.0 0.0 0.0
0.0 0.0 0.0
0.0 0.0 0.0
0.0 0.0 0.0
0.0 0.0 0.0
0.0 0.0 0.0
0.0 0.0 0.0
0.0 0.0 0.0
0.0 0.0 0.0
0.0 0.0 0.0
0.0 0.0 0.0
0.0 0.0 0.0
0.0 0.0 0.0
0.0 0.0 0.0
0.0 0.0 0.0
0.0 0.0 0.0
0.0 0.0 0.0
0.0 0.0 0.0
0.0 0.0 0.0
0.0 0.0 0.0
0.0 0.0 0.0
0.0 0.0 0.0
0.0 0.0 0.0
0.0 0.0 0.0
0.0 0.0 0.0
0.0 0.0 0.0
0.0 0.0 0.0
0.0 0.0 0.0
0.0 0.0 0.0
0.0 0.0 0.0
0.0 0.0 0.0
0.0 0.0 0.0
0.0 0.0 0.0
0.0 0.0 0.0
0.0 0.0 0.0
0.0 0.0 0.0
0.0 0.0 0.0
0.0 0.0 0.0
0.0 0.0 0.0
0.0 0.0 0.0
0.0 0.0 0.0
0.0 0.0 0.0
0.0 0.0 0.0
0.0 0.0 0.0
0.0 0.0 0.0
0.0 0.0 0.0
0.0 0.0 0.0
0.0 0.0 0.0
0.0 0.0 0.0
0.0 0.0 0.0
0.0 0.0 0.0
0.0 0.0 0.0
0.0 0.0 0.0
0.0 0.0 0.0
0.0 0.0 0.0
0.0 0.0 0.0
0.0 0.0 0.0
0.0 0.0 0.0
0.0 0.0 0.0
0.0 0.0 0.0
0.0 0.0 0.0
0.0 0.0 0.0
0.0 0.0 0.0
0.0 0.0 0.0
0.0 0.0 0.0
0.0 0.0 0.0
0.0 0.0 0.0
0.0 0.0 0.0
0.0 0.0 0.0
0.0 0.0 0.0
0.0 0.0 0.0
0.0 0.0 0.0
0.0 0.0 0.0
0.0 0.0 0.0
0.0 0.0 0.0
0.0 0.0 0.0
0.0 0.0 0.0
0.0 0.0 0.0
0.0 0.0 0.0
0.0 0.0 0.0
0.0 0.0 0.0
0.0 0.0 0.0
0.0 0.0 0.0
0.0 0.0 0.0
0.0 0.0 0.0
0.0 0.0 0.0
0.0 0.0 0.0
0.0 0.0 0.0
0.0 0.0 0.0
0.0 0.0 0.0
0.0 0.0 0.0
0.0 0.0 0.0
0.0 0.0 0.0
0.0 0.0 0.0
0.0 0.0 0.0
0.0 0.0 0.0
0.0 0.0 0.0
0.0 0.0 0.0
0.0 0.0 0.0
0.0 0.0 0.0
0.0 0.0 0.0
0.0 0.0 0.0
0.0 0.0 0.0
0.0 0.0 0.0
0.0 0.0 0.0
0.0 0.0 0.0
0.0 0.0 0.0
0.0 0.0 0.0
0.0 0.0 0.0
0.0 0.0 0.0
0.0 0.0 0.0
0.0 0.0 0.0
0.0 0.0 0.0
0.0 0.0 0.0
0.0 0.0 0.0
0.0 0.0 0.0
0.0 0.0 0.0
0.0 0.0 0.0
0.0 0.0 0.0
0.0 0.0 0.0
0.0 0.0 0.0
0.0 0.0 0.0
0.0 0.0 0.0
0.0 0.0 0.0
0.0 0.0 0.0
0.0 0.0 0.0
0.0 0.0 0.0
0.0 0.0 0.0
0.0 0.0 0.0
0.0 0.0 0.0
0.0 0.0 0.0
0.0 0.0 0.0
0.0 0.0 0.0
0.0 0.0 0.0
0.0 0.0 0.0
0.0 0.0 0.0
0.0 0.0 0.0
0.0 0.0 0.0
0.0 0.0 0.0
0.0 0.0 0.0
0.0 0.0 0.0
0.0 0.0 0.0
0.0 0.0 0.0
0.0 0.0 0.0
0.0 0.0 0.0
0.0 0.0 0.0
0.0 0.0 0.0
0.0 0.0 0.0
0.0 0.0 0.0
0.0 0.0 0.0
0.0 0.0 0.0
0.0 0.0 0.0
0.0 0.0 0.0
0.0 0.0 0.0
0.0 0.0 0.0
0.0 0.0 0.0
0.0 0.0 0.0
0.0 0.0 0.0
0.0 0.0 0.0
0.0 0.0 0.0
0.0 0.0 0.0
0.0 0.0 0.0
0.0 0.0 0.0
0.0 0.0 0.0
0.0 0.0 0.0
0.0 0.0 0.0
0.0 0.0 0.0
0.0 0.0 0.0
0.0 0.0 0.0
0.0 0.0 0.0
0.0 0.0 0.0
0.0 0.0 0.0
0.0 0.0 0.0
0.0 0.0 0.0
0.0 0.0 0.0
0.0 0.0 0.0
0.0 0.0 0.0
0.0 0.0 0.0
0.0 0.0 0.0
0.0 0.0 0.0
0.0 0.0 0.0
0.0 0.0 0.0
0.0 0.0 0.0
0.0 0.0 0.0
0.0 0.0 0.0
0.0 0.0 0.0
0.0 0.0 0.0
0.0 0.0 0.0
0.0 0.0 0.0
0.0 0.0 0.0
0.0 0.0 0.0
0.0 0.0 0.0
0.0 0.0 0.0
0.0 0.0 0.0
0.0 0.0 0.0
0.0 0.0 0.0
0.0 0.0 0.0
0.0 0.0 0.0
0.0 0.0 0.0
0.0 0.0 0.0
0.0 0.0 0.0
0.0 0.0 0.0
0.0 0.0 0.0
0.0 0.0 0.0
0.0 0.0 0.0
0.0 0.0 0.0
0.0 0.0 0.0
0.0 0.0 0.0
0.0 0.0 0.0
0.0 0.0 0.0
0.0 0.0 0.0
0.0 0.0 0.0
0.0 0.0 0.0
0.0 0.0 0.0
0.0 0.0 0.0
0.0 0.0 0.0
0.0 0.0 0.0
0.0 0.0 0.0
0.0 0.0 0.0
0.0 0.0 0.0
0.0 0.0 0.0
0.0 0.0 0.0
0.0 0.0 0.0
0.0 0.0 0.0
0.0 0.0 0.0
0.0 0.0 0.0
0.0 0.0 0.0
0.0 0.0 0.0
0.0 0.0 0.0
0.0 0.0 0.0
0.0 0.0 0.0
0.0 0.0 0.0
0.0 0.0 0.0
0.0 0.0 0.0
0.0 0.0 0.0
0.0 0.0 0.0
0.0 0.0 0.0
0.0 0.0 0.0
0.0 0.0 0.0
0.24247973275 -0.00274698759024 0.0
0.460855190089 -0.00466478413074 0.0
0.644130509497 -0.00599204008521 0.0
0.841078913656 -0.0107087132223 0.0
1.05530012281 -0.0146197480656 0.0
1.16839725951 -0.00686944698323 0.0
1.28279877749 -0.0235047279429 0.0
1.44603162546 -0.0257443802941 0.0
1.53103289378 -0.0382722945204 0.0
1.6777630428 -0.0427869434765 0.0
1.67999988324 -0.0502448016527 0.0
1.82236523096 -0.0729627129078 0.0
1.73384579998 -0.0606296287143 0.0
1.63822543987 -0.0868135822043 0.0
1.61985915811 -0.132186460901 0.0
1.56183481595 -0.273923993269 0.0
0.117933844623 0.0012450884299 0.0
0.339849598282 0.00233257304789 0.0
0.545467118163 0.0017209527814 0.0
0.738080955962 0.00297608458924 0.0
0.919266200972 0.00493047050019 0.0
1.09018437267 0.00203342196161 0.0
1.2222963225 -0.000955596018045 0.0
1.37102607096 0.0147145793037 0.0
1.50459623783 0.012352996506 0.0
1.60403829206 0.0253505091426 0.0
1.69706552999 0.0184713285284 0.0
1.79034002856 0.034989450211 0.0
1.81309828027 0.0222967243237 0.0
1.94823480136 0.0332421477569 0.0
1.91047731096 0.0256865494978 0.0
2.01476461741 0.0936881326203 0.0
1.81571801641 0.108572971178 0.0
-3.54358570397 0.0 0.0
-3.44675982961 0.0 0.0
-3.32874931476 0.0 0.0
-3.33191662434 0.0 0.0
-3.30098858589 0.0 0.0
-3.35792343259 0.0 0.0
-2.88580764606 0.0 0.0
-3.44898596977 0.0 0.0
-2.9745986346 0.0 0.0
-3.39299113835 0.0 0.0
-3.53728949369 0.0 0.0
-2.93288579588 0.0 0.0
-3.53268131049 0.0 0.0
-3.45881466924 0.0 0.0
-3.4486567892 0.0 0.0
-3.49422533605 0.0 0.0
-3.46666484371 0.0 0.0
-2.95062258803 0.0 0.0
-3.33472993613 0.0 0.0
-3.48274979732 0.0 0.0
-3.26906459688 0.0 0.0
-3.17182399592 0.0 0.0
-3.53870689727 0.0 0.0
-3.00408625342 0.0 0.0
-3.30617515399 0.0 0.0
-3.40280879956 0.0 0.0
-3.58976064418 0.0 0.0
-3.29281720234 0.0 0.0
-3.56701606861 0.0 0.0
-3.51267930608 0.0 0.0
-3.62963821606 0.0 0.0
-2.94583655234 0.0 0.0
-3.65131484885 0.0 0.0
-3.14203113128 0.0 0.0
-4.97278936341 0.0 0.0
-3.13487794753 0.0 0.0
-3.63160437254 0.0 0.0
-3.51354630173 0.0 0.0
-3.47693601883 0.0 0.0
-3.64013132939 0.0 0.0
-2.93398013383 0.0 0.0
-3.69375248004 0.0 0.0
-3.14352944259 0.0 0.0
-4.94476177144 0.0 0.0
-3.32337637828 0.0 0.0
-3.52283498118 0.0 0.0
-3.50314841951 0.0 0.0
-3.50434576725 0.0 0.0
-3.66522629947 0.0 0.0
-2.88663662991 0.0 0.0
-3.75098858678 0.0 0.0
-3.12839605704 0.0 0.0
-4.93099544414 0.0 0.0
-3.30756189913 0.0 0.0
-3.46005737828 0.0 0.0
-3.61638480121 0.0 0.0
-3.56570536908 0.0 0.0
-3.71202641708 0.0 0.0
-2.90140736564 0.0 0.0
-3.80899318676 0.0 0.0
-3.13610159481 0.0 0.0
-4.97635043031 0.0 0.0
-3.35938300795 0.0 0.0
-3.46689292066 0.0 0.0
-3.60020470583 0.0 0.0
-3.75945196302 0.0 0.0
-3.60260960418 0.0 0.0
-3.48556758359 0.0 0.0
-3.35528263056 0.0 0.0
-3.47470784124 0.0 0.0
-3.4557214067 0.0 0.0
-3.5995896919 0.0 0.0
-3.88369897702 0.0 0.0
-3.05322313944 0.0 0.0
-3.86023231496 0.0 0.0
-3.55756387979 0.0 0.0
-3.72483458263 0.0 0.0
-3.69632704985 0.0 0.0
-2.98522651125 0.0 0.0
-3.83977527739 0.0 0.0
-3.78184517067 0.0 0.0
-3.78141941013 0.0 0.0
-3.86787369799 0.0 0.0
-3.05352664313 0.0 0.0
-4.01796354387 0.0 0.0
-3.68118490595 0.0 0.0
-3.51581779456 0.0 0.0
-3.56878269027 0.0 0.0
-3.42105196745 0.0 0.0
-3.66733153855 0.0 0.0
-3.94821388985 0.0 0.0
-3.96144958911 0.0 0.0
-3.6581043443 0.0 0.0
-3.39021878249 0.0 0.0
-3.24465010955 0.0 0.0
-5.50330119824 0.0 0.0
-3.29103882653 0.0 0.0
-4.0441494622 0.0 0.0
-3.0339990584 0.0 0.0
-3.93229848614 0.0 0.0
-3.86599461973 0.0 0.0
-3.87790558317 0.0 0.0
-3.7140184501 0.0 0.0
-3.4895225381 0.0 0.0
-5.48773298414 0.0 0.0
-3.28709226355 0.0 0.0
-4.19610396661 0.0 0.0
-3.05088106076 0.0 0.0
-3.97681288712 0.0 0.0
-3.88216518417 0.0 0.0
-3.9521120488 0.0 0.0
-3.70584687071 0.0 0.0
-3.50982098046 0.0 0.0
-5.66621566602 0.0 0.0
-3.34342016837 0.0 0.0
-4.29921619694 0.0 0.0
-3.0992724795 0.0 0.0
-4.02973426104 0.0 0.0
-3.92699138651 0.0 0.0
-3.93424422272 0.0 0.0
-3.86661415327 0.0 0.0
-3.61153016212 0.0 0.0
-5.96154402137 0.0 0.0
-3.44906298877 0.0 0.0
-4.41241550027 0.0 0.0
-3.23487007763 0.0 0.0
-4.12966489577 0.0 0.0
-4.0470670559 0.0 0.0
-4.11484550076 0.0 0.0
-4.19267706344 0.0 0.0
-3.49869450921 0.0 0.0
-6.33937150051 0.0 0.0
-3.58059082364 0.0 0.0
-4.57402239203 0.0 0.0
-3.36794792211 0.0 0.0
-4.34583262323 0.0 0.0
-4.32000931301 0.0 0.0
-4.41138509572 0.0 0.0
-3.90240485718 0.0 0.0
-4.54387783419 0.0 0.0
-4.40189345721 0.0 0.0
-4.24300920872 0.0 0.0
-3.70750516613 0.0 0.0
-4.64944205625 0.0 0.0
-3.87332006237 0.0 0.0
-4.07692841522 0.0 0.0
-4.57828013576 0.0 0.0
-4.4139826119 0.0 0.0
-3.79172127435 0.0 0.0
-4.90704171058 0.0 0.0
-4.72650078882 0.0 0.0
-4.82162184811 0.0 0.0
-4.91378972753 0.0 0.0
-4.91122259141 0.0 0.0
-3.89139404537 0.0 0.0
-5.65449010233 0.0 0.0
-5.02863032363 0.0 0.0
-4.01950042692 0.0 0.0
-5.86055997991 0.0 0.0
-4.17659823623 0.0 0.0
-5.64411018207 0.0 0.0
-5.24853375023 0.0 0.0
-5.4288891247 0.0 0.0
-5.65905555087 0.0 0.0
-6.07011825948 0.0 0.0
-6.25499994003 0.0 0.0
-1.98185310071 0.0 0.0
-1.67958559793 0.0 0.0
-2.27228996733 0.0 0.0
-1.62348274669 0.0 0.0
-2.20195926162 0.0 0.0
-1.85689328565 0.0 0.0
-1.57737162841 0.0 0.0
-1.96755658322 0.0 0.0
-1.10927711574 0.0 0.0
-1.97156715805 0.0 0.0
-1.57354127799 0.0 0.0
-1.6525291397 0.0 0.0
-1.80007523276 0.0 0.0
-2.33540000632 0.0 0.0
-1.33466195551 0.0 0.0
-2.36384365205 0.0 0.0
-2.06202996791 0.0 0.0
-1.49447620998 0.0 0.0
-1.47151419687 0.0 0.0
-2.29225314587 0.0 0.0
-1.55953526695 0.0 0.0
-2.29241689525 0.0 0.0
-1.91103587791 0.0 0.0
-1.69265224582 0.0 0.0
-1.60360343079 0.0 0.0
-2.25593142414 0.0 0.0
-1.37815880647 0.0 0.0
-2.23792699807 0.0 0.0
-2.29726887444 0.0 0.0
-1.45167859795 0.0 0.0
-2.35786930345 0.0 0.0
-1.91013240193 0.0 0.0
-1.74759667 0.0 0.0
-1.73378803892 0.0 0.0
-2.96047053991 0.0 0.0
-2.80828016949 0.0 0.0
-1.88631874633 0.0 0.0
-2.42895149546 0.0 0.0
-1.46789225145 0.0 0.0
-2.24660681606 0.0 0.0
-2.11477378367 0.0 0.0
-1.79099348304 0.0 0.0
-1.74156964919 0.0 0.0
-2.92065961099 0.0 0.0
-3.07750588671 0.0 0.0
-2.1570936196 0.0 0.0
-2.311099638 0.0 0.0
-1.51265850911 0.0 0.0
-2.27481649113 0.0 0.0
-2.06181187129 0.0 0.0
-1.81440840501 0.0 0.0
-1.7599541437 0.0 0.0
-2.95576752444 0.0 0.0
-3.03943399014 0.0 0.0
-2.08123405343 0.0 0.0
-2.39121033624 0.0 0.0
-1.50350045526 0.0 0.0
-2.29397385935 0.0 0.0
-2.08959826419 0.0 0.0
-1.83814414711 0.0 0.0
-1.78915616825 0.0 0.0
-3.04273543412 0.0 0.0
-3.02809646595 0.0 0.0
-2.08345708858 0.0 0.0
-2.37818951397 0.0 0.0
-1.61554279214 0.0 0.0
-2.09677518309 0.0 0.0
-2.44366195224 0.0 0.0
-1.66345512204 0.0 0.0
-1.90455162861 0.0 0.0
-2.30613277131 0.0 0.0
-2.31537767874 0.0 0.0
-1.73569103616 0.0 0.0
-1.92369502176 0.0 0.0
-2.20110141269 0.0 0.0
-1.46984121777 0.0 0.0
-2.52892462267 0.0 0.0
-1.72529617682 0.0 0.0
-2.11513944617 0.0 0.0
-2.05675496219 0.0 0.0
-2.26506304906 0.0 0.0
-1.5352912882 0.0 0.0
-2.66208286154 0.0 0.0
-1.97169441022 0.0 0.0
-1.87055155792 0.0 0.0
-1.76652475831 0.0 0.0
-2.36958755723 0.0 0.0
-2.34692086781 0.0 0.0
-1.9677505532 0.0 0.0
-1.77866612042 0.0 0.0
-2.56632900025 0.0 0.0
-1.99886241886 0.0 0.0
-2.53685827448 0.0 0.0
-1.81700086325 0.0 0.0
-2.06703494628 0.0 0.0
-3.13287832674 0.0 0.0
-3.30062645423 0.0 0.0
-1.98265383796 0.0 0.0
-2.02485581755 0.0 0.0
-2.1997352896 0.0 0.0
-2.46737114717 0.0 0.0
-1.6474782333 0.0 0.0
-2.52541949078 0.0 0.0
-2.22779064128 0.0 0.0
-3.31366899114 0.0 0.0
-3.33006996997 0.0 0.0
-1.96130561347 0.0 0.0
-2.01575095931 0.0 0.0
-2.23880834951 0.0 0.0
-2.43802281477 0.0 0.0
-1.65906850243 0.0 0.0
-2.55597810667 0.0 0.0
-2.23223949898 0.0 0.0
-3.46122822562 0.0 0.0
-3.35577041088 0.0 0.0
-2.00091877293 0.0 0.0
-2.06448550953 0.0 0.0
-2.26671727111 0.0 0.0
-2.47431336029 0.0 0.0
-1.72157828159 0.0 0.0
-2.521532913 0.0 0.0
-2.3701963535 0.0 0.0
-3.66812477455 0.0 0.0
-3.4709727478 0.0 0.0
-2.05336965522 0.0 0.0
-2.11616352732 0.0 0.0
-2.39925267532 0.0 0.0
-2.52022193013 0.0 0.0
-1.74861408297 0.0 0.0
-2.75010998979 0.0 0.0
-2.18515887069 0.0 0.0
-3.51077179555 0.0 0.0
-3.68079868809 0.0 0.0
-2.12690477561 0.0 0.0
-2.15185272361 0.0 0.0
-2.28003175737 0.0 0.0
-2.78170216845 0.0 0.0
-1.82708244045 0.0 0.0
-2.7294618652 0.0 0.0
-2.69930484705 0.0 0.0
-1.82080302816 0.0 0.0
-2.81387033087 0.0 0.0
-2.09846702847 0.0 0.0
-2.22024988066 0.0 0.0
-2.38964062838 0.0 0.0
-2.74908800471 0.0 0.0
-2.02816160768 0.0 0.0
-2.90978074573 0.0 0.0
-1.9653544709 0.0 0.0
-2.10602889358 0.0 0.0
-2.83091700907 0.0 0.0
-3.13223779182 0.0 0.0
-1.93643387871 0.0 0.0
-3.13596710143 0.0 0.0
-2.45397076183 0.0 0.0
-2.47950478093 0.0 0.0
-2.44767837066 0.0 0.0
-2.67518058082 0.0 0.0
-1.79346652991 0.0 0.0
-3.05871635952 0.0 0.0
-2.55097559517 0.0 0.0
-2.99250954321 0.0 0.0
-3.40265110865 0.0 0.0
-2.78205788105 0.0 0.0
-3.84728185503 0.0 0.0
-3.24863550246 0.0 0.0
-4.11696160006 0.0 0.0
1.99307958478 0.0 0.0
1.9723183391 0.0 0.0
1.93771626298 0.0 0.0
1.8892733564 0.0 0.0
1.82698961938 0.0 0.0
1.7508650519 0.0 0.0
1.66089965398 0.0 0.0
1.55709342561 0.0 0.0
1.43944636678 0.0 0.0
1.30795847751 0.0 0.0
1.16262975779 0.0 0.0
1.00346020761 0.0 0.0
0.830449826992 0.0 0.0
0.643598615918 0.0 0.0
0.442906574396 0.0 0.0
0.228373702423 0.0 0.0
1.99826989619 0.0 0.0
1.98442906574 0.0 0.0
1.95674740484 0.0 0.0
1.9152249135 0.0 0.0
1.8598615917 0.0 0.0
1.79065743945 0.0 0.0
1.70761245675 0.0 0.0
1.6107266436 0.0 0.0
1.5 0.0 0.0
1.37543252595 0.0 0.0
1.23702422146 0.0 0.0
1.08477508651 0.0 0.0
0.918685121109 0.0 0.0
0.738754325261 0.0 0.0
0.544982698963 0.0 0.0
0.337370242215 0.0 0.0
0.115916955018 0.0 0.0
1.47870458218 0.00737757664709 0.0
1.45387451602 -0.0111628214977 0.0
1.4913488029 0.00140569528436 0.0
1.46287142006 -0.0050045568867 0.0
1.49524704972 -0.00226717073902 0.0
1.46538209658 -0.000713569527368 0.0
1.48201876319 -0.000366049274006 0.0
1.5102876929 -0.000582209916512 0.0
1.50568945063 0.00243860752478 0.0
1.53109189585 -0.00312998222554 0.0
1.50947078496 0.00228627429996 0.0
1.52966931309 -0.00375731251363 0.0
1.51339014802 0.00214142272241 0.0
1.52794738673 -0.0040660438152 0.0
1.51699401681 0.00286763421199 0.0
1.4834215556 0.00115685267095 0.0
1.47841259877 -0.000363602002097 0.0
1.44175351021 -0.00377930888683 0.0
1.09057019724 0.00175664706759 0.0
1.10224058712 -0.00427464054578 0.0
1.78378766126 -0.0162541134845 0.0
1.68566689809 0.00977894410332 0.0
1.09013009634 0.0032949870804 0.0
1.09930872644 -0.00536563225429 0.0
1.76172692635 0.0103287026641 0.0
1.08889877014 -0.00318160025952 0.0
1.09527326113 0.00207252826868 0.0
1.09512462006 -0.00453795987378 0.0
1.0913963678 0.00392361829816 0.0
1.76467140609 -0.0060050895224 0.0
1.78571867082 -0.00235228005835 0.0
1.08977447988 -0.00450998662109 0.0
1.08803080435 0.00329224471912 0.0
1.08803547097 -0.00462045001635 0.0
1.08740387435 0.003075586413 0.0
1.08709927863 -0.00487116796823 0.0
1.07506168686 0.00167336770884 0.0
1.07470549247 -0.00178765124563 0.0
1.78000485255 0.00414071152629 0.0
1.76706783295 -0.00312600024834 0.0
1.77934378168 0.00488738494986 0.0
1.75755923352 -0.00243446368705 0.0
1.74840987609 -0.00156544350173 0.0
1.78290491402 0.0045381436384 0.0
1.78188075842 0.0157092843659 0.0
1.7265042303 -0.0147597901222 0.0
1.72046510769 -0.0112833333712 0.0
1.79660230875 0.0099442140364 0.0
1.75483272809 -0.00198842616638 0.0
1.73817113062 0.00460976598181 0.0
1.00460371175 -0.00110483434134 0.0
1.00504336691 0.000302566399034 0.0
1.0181649234 -0.000302792952097 0.0
0.996428132144 -0.00104918512586 0.0
1.82326513514 -0.00163786611396 0.0
1.70837548632 -0.00970307408892 0.0
0.884053675857 -0.000396466298574 0.0
0.901062733415 -0.00118975207118 0.0
0.856053985395 0.000938196349468 0.0
0.869909702673 -0.00202465437638 0.0
1.95614807323 0.000421706966038 0.0
1.95184458672 0.00328090782834 0.0
1.94360904201 -0.000815437860384 0.0
1.9372926604 0.0133722458795 0.0
0.890854211942 -0.00125246484824 0.0
0.880153730312 0.00100632605083 0.0
0.88860728522 -5.48347482754e-05 0.0
0.881414609566 -0.000685140858786 0.0
0.886282962577 -0.000235439936333 0.0
0.880903793014 -0.000812515646436 0.0
0.884025613169 -0.000635429995897 0.0
0.880296577105 -0.00113594414962 0.0
0.882544381704 0.0003370413048 0.0
1.93446143671 -0.00778544989171 0.0
1.94794760911 0.00390295390337 0.0
1.93879915315 -0.00085762012658 0.0
1.93977551665 0.00648899212061 0.0
1.93336074975 -0.00100872511969 0.0
0.872857105761 -0.00220229722249 0.0
0.873686511078 0.0012984929107 0.0
1.87543690402 0.00533757548205 0.0
1.88226686148 -0.000675832022335 0.0
1.88343006531 0.0029284110857 0.0
1.80531182853 -0.00346177098673 0.0
1.78899191982 0.0031717183102 0.0
1.76520109952 0.000372443023122 0.0
0.895556001056 -0.00101954056465 0.0
0.918348197315 -0.000652881890044 0.0
1.88422982245 0.00226926575163 0.0
1.76696753671 -0.0081544852082 0.0
0.814902654209 -0.00114256855886 0.0
1.85464073939 -0.014539431945 0.0
1.43880758331 0.00369426767546 0.0
1.45433101384 -0.00541011547368 0.0
1.46850125715 0.003465941643 0.0
1.46472287414 -0.00359327155926 0.0
1.46722523627 0.0090905134444 0.0
1.50995010881 -0.00787887411793 0.0
1.47409187041 -0.00771278991129 0.0
1.49612487736 -0.00569397913691 0.0
1.5124860522 0.00411129880427 0.0
1.51775888463 0.00482275734791 0.0
1.48680353029 -0.00803719321997 0.0
1.50697752578 0.00714168168233 0.0
1.47746293222 -0.00938720955008 0.0
1.49079375907 -0.00590346937834 0.0
1.5127430575 0.00477773668348 0.0
1.4894525147 -0.00504728022476 0.0
1.51611718761 0.00473200365583 0.0
1.46784095772 0.000882809321087 0.0
1.49578330241 -0.0048475145192 0.0
1.83230918735 -0.0245056086105 0.0
1.91346379493 0.0355523723501 0.0
1.91831293271 -0.0127648423928 0.0
1.89205205558 0.0142026833488 0.0
1.93055284455 -0.0112026858415 0.0
1.88888205797 0.0144130829634 0.0
1.94114296519 -0.0101392589665 0.0
1.87940729865 0.011361644771 0.0
1.94508193284 -0.0047211093076 0.0
1.9202874472 -0.00659516523923 0.0
1.99668773487 0.0136098213109 0.0
2.0523884251 -0.00300033003579 0.0
1.97343009812 0.0116182892353 0.0
0.673396334176 0.00031995911815 0.0
0.692826775783 -0.00102782731796 0.0
0.657825749532 -0.000880142261991 0.0
0.671733290849 0.000780778231785 0.0
0.655844250273 0.000437436983362 0.0
0.671147514388 -0.0010471888593 0.0
0.676185868692 0.000879191671106 0.0
0.660061056485 -0.00169021743286 0.0
0.668465251753 -0.00115342575669 0.0
0.658758171263 0.00103154129708 0.0
0.673420529244 -0.00116170498561 0.0
0.662292646894 0.00168852612063 0.0
0.664685816515 -0.00202657825549 0.0
0.657290096269 0.00137474108802 0.0
0.667720781038 0.000894931003871 0.0
0.659354254484 -0.00142836294863 0.0
0.661850637726 -0.00223353897403 0.0
0.657235207873 0.0010888524553 0.0
0.672215455355 -0.00171153199954 0.0
0.6597678239 0.00139003524056 0.0
0.665271102468 0.00150023063759 0.0
0.659263581948 -0.00156894498308 0.0
0.660501601964 -0.00158847117212 0.0
0.663508736804 0.000961446473767 0.0
0.660872724999 -0.00100689358885 0.0
0.664198532445 0.00144683676765 0.0
1.90144780589 0.0140718918571 0.0
1.43202663622 0.00325015793173 0.0
1.41320422396 -0.00683607813722 0.0
1.93772285475 -0.00768365397935 0.0
1.43519063923 0.00503589669681 0.0
1.41382164699 -0.00550014059519 0.0
1.46240132006 0.00318806655932 0.0
1.44349088393 -0.0043082627207 0.0
1.4442878723 0.00209066967916 0.0
1.43000016139 -0.0037969539425 0.0
1.44188497103 -0.00268966339889 0.0
1.46337638948 0.00107540662983 0.0
1.45158777877 -0.00162537653311 0.0
1.4325221124 -0.00458705042699 0.0
1.44430610466 0.001903332632 0.0
1.43414382593 -0.00489421556228 0.0
1.45460264847 0.00168098870347 0.0
0.634017199819 -0.000563217844788 0.0
0.635414036579 0.000518473088184 0.0
2.04519292583 0.0310279080936 0.0
2.12381047001 -0.0204008657705 0.0
0.696387207934 0.00465528835029 0.0
0.667690997115 -0.000194364526568 0.0
0.641192466375 -0.00385651460935 0.0
0.662149168264 0.00319699210055 0.0
1.88953448862 -0.0408940733077 0.0
1.98820371388 0.0502711951086 0.0
1.85003108935 -0.0147241629549 0.0
1.92895683437 0.0215682885823 0.0