# vtk DataFile Version 2.0
2D Simulation Python
ASCII
DATASET UNSTRUCTURED_GRID
FIELD FieldData 1
NODES 1 2 int
1422 2620

POINTS 1422 double
0.0 1.0 0.0
1.725 1.0 0.0
8.275 1.0 0.0
10.0 1.0 0.0
10.0 0.0 0.0
0.0 0.0 0.0
0.09583333333314978 1.0 0.0
0.1916666666663293 1.0 0.0
0.2874999999994224 1.0 0.0
0.3833333333324708 1.0 0.0
0.4791666666655263 1.0 0.0
0.574999999998553 1.0 0.0
0.6708333333315749 1.0 0.0
0.7666666666645966 1.0 0.0
0.8624999999976839 1.0 0.0
0.9583333333312576 1.0 0.0
1.054166666664865 1.0 0.0
1.149999999998384 1.0 0.0
1.245833333332023 1.0 0.0
1.341666666665662 1.0 0.0
1.437499999999301 1.0 0.0
1.533333333332819 1.0 0.0
1.629166666666443 1.0 0.0
1.824242424242242 1.0 0.0
1.92348484848444 1.0 0.0
2.022727272726717 1.0 0.0
2.121969696968978 1.0 0.0
2.221212121211135 1.0 0.0
2.320454545453434 1.0 0.0
2.419696969695623 1.0 0.0
2.518939393937826 1.0 0.0
2.618181818180112 1.0 0.0
2.717424242422235 1.0 0.0
2.816666666664341 1.0 0.0
2.915909090906411 1.0 0.0
3.015151515148588 1.0 0.0
3.1143939393908 1.0 0.0
3.213636363632884 1.0 0.0
3.312878787875129 1.0 0.0
3.412121212117286 1.0 0.0
3.511363636359531 1.0 0.0
3.610606060601614 1.0 0.0
3.709848484843827 1.0 0.0
3.809090909086003 1.0 0.0
3.90833333332816 1.0 0.0
4.007575757570265 1.0 0.0
4.106818181812215 1.0 0.0
4.20606060605463 1.0 0.0
4.305303030296804 1.0 0.0
4.404545454538924 1.0 0.0
4.503787878781365 1.0 0.0
4.603030303023349 1.0 0.0
4.702272727265711 1.0 0.0
4.80151515150799 1.0 0.0
4.900757575750005 1.0 0.0
4.999999999992499 1.0 0.0
5.099242424235156 1.0 0.0
5.198484848477834 1.0 0.0
5.297727272720327 1.0 0.0
5.396969696963127 1.0 0.0
5.496212121205663 1.0 0.0
5.595454545448268 1.0 0.0
5.694696969690998 1.0 0.0
5.79393939393367 1.0 0.0
5.89318181817668 1.0 0.0
5.992424242419174 1.0 0.0
6.09166666666213 1.0 0.0
6.190909090904857 1.0 0.0
6.290151515147423 1.0 0.0
6.389393939390537 1.0 0.0
6.488636363633031 1.0 0.0
6.587878787875884 1.0 0.0
6.687121212118713 1.0 0.0
6.786363636361205 1.0 0.0
6.885606060604342 1.0 0.0
6.984848484846887 1.0 0.0
7.084090909089381 1.0 0.0
7.183333333331875 1.0 0.0
7.282575757574369 1.0 0.0
7.381818181816861 1.0 0.0
7.481060606059355 1.0 0.0
7.580303030301849 1.0 0.0
7.679545454544343 1.0 0.0
7.778787878786837 1.0 0.0
7.878030303029329 1.0 0.0
7.977272727271822 1.0 0.0
8.076515151514705 1.0 0.0
8.175757575757507 1.0 0.0
8.370833333332062 1.0 0.0
8.46666666666447 1.0 0.0
8.562499999996877 1.0 0.0
8.658333333329285 1.0 0.0
8.754166666662387 1.0 0.0
8.84999999999549 1.0 0.0
8.945833333328592 1.0 0.0
9.041666666661694 1.0 0.0
9.137499999994796 1.0 0.0
9.233333333327899 1.0 0.0
9.329166666661424 1.0 0.0
9.42499999999549 1.0 0.0
9.52083333332944 1.0 0.0
9.616666666663775 1.0 0.0
9.712499999997572 1.0 0.0
9.808333333331985 1.0 0.0
9.904166666665859 1.0 0.0
10.0 0.8999999999995836 0.0
10.0 0.7999999999999998 0.0
10.0 0.7000000000006934 0.0
10.0 0.6000000000013869 0.0
10.0 0.5000000000020587 0.0
10.0 0.4000000000016644 0.0
10.0 0.3000000000012483 0.0
10.0 0.2000000000008322 0.0
10.0 0.100000000000416 0.0
9.9 0.0 0.0
9.799999999999999 0.0 0.0
9.7 0.0 0.0
9.6 0.0 0.0
9.499999999999998 0.0 0.0
9.399999999999999 0.0 0.0
9.299999999999999 0.0 0.0
9.2 0.0 0.0
9.099999999999998 0.0 0.0
8.999999999999998 0.0 0.0
8.899999999999999 0.0 0.0
8.799999999999997 0.0 0.0
8.699999999999998 0.0 0.0
8.599999999999998 0.0 0.0
8.499999999999996 0.0 0.0
8.399999999999997 0.0 0.0
8.299999999999997 0.0 0.0
8.199999999999998 0.0 0.0
8.099999999999998 0.0 0.0
7.999999999999997 0.0 0.0
7.899999999999997 0.0 0.0
7.799999999999997 0.0 0.0
7.699999999999998 0.0 0.0
7.599999999999998 0.0 0.0
7.499999999999998 0.0 0.0
7.399999999999997 0.0 0.0
7.299999999999997 0.0 0.0
7.199999999999998 0.0 0.0
7.099999999999998 0.0 0.0
6.999999999999997 0.0 0.0
6.899999999999998 0.0 0.0
6.799999999999997 0.0 0.0
6.699999999999998 0.0 0.0
6.599999999999998 0.0 0.0
6.499999999999998 0.0 0.0
6.399999999999997 0.0 0.0
6.299999999999998 0.0 0.0
6.199999999999998 0.0 0.0
6.099999999999998 0.0 0.0
5.999999999999997 0.0 0.0
5.899999999999998 0.0 0.0
5.799999999999998 0.0 0.0
5.699999999999998 0.0 0.0
5.599999999999998 0.0 0.0
5.499999999999998 0.0 0.0
5.399999999999999 0.0 0.0
5.299999999999999 0.0 0.0
5.199999999999998 0.0 0.0
5.099999999999999 0.0 0.0
4.999999999999999 0.0 0.0
4.899999999999998 0.0 0.0
4.799999999999999 0.0 0.0
4.699999999999998 0.0 0.0
4.599999999999999 0.0 0.0
4.499999999999998 0.0 0.0
4.399999999999999 0.0 0.0
4.299999999999998 0.0 0.0
4.199999999999999 0.0 0.0
4.099999999999998 0.0 0.0
3.999999999999999 0.0 0.0
3.899999999999999 0.0 0.0
3.799999999999999 0.0 0.0
3.699999999999999 0.0 0.0
3.599999999999999 0.0 0.0
3.499999999999997 0.0 0.0
3.399999999999998 0.0 0.0
3.299999999999999 0.0 0.0
3.199999999999998 0.0 0.0
3.099999999999998 0.0 0.0
2.999999999999999 0.0 0.0
2.899999999999999 0.0 0.0
2.799999999999998 0.0 0.0
2.699999999999998 0.0 0.0
2.599999999999998 0.0 0.0
2.499999999999999 0.0 0.0
2.399999999999999 0.0 0.0
2.299999999999999 0.0 0.0
2.199999999999999 0.0 0.0
2.1 0.0 0.0
1.999999999999998 0.0 0.0
1.899999999999999 0.0 0.0
1.799999999999999 0.0 0.0
1.699999999999999 0.0 0.0
1.6 0.0 0.0
1.5 0.0 0.0
1.4 0.0 0.0
1.299999999999999 0.0 0.0
1.199999999999999 0.0 0.0
1.099999999999998 0.0 0.0
0.9999999999999982 0.0 0.0
0.9000000000000004 0.0 0.0
0.7999999999999989 0.0 0.0
0.6999999999999993 0.0 0.0
0.6000000000000014 0.0 0.0
0.5 0.0 0.0
0.3999999999999986 0.0 0.0
0.2999999999999989 0.0 0.0
0.1999999999999993 0.0 0.0
0.09999999999999964 0.0 0.0
0.0 0.09999999999981467 0.0
0.0 0.1999999999995579 0.0
0.0 0.2999999999992664 0.0
0.0 0.3999999999989749 0.0
0.0 0.4999999999986943 0.0
0.0 0.5999999999989468 0.0
0.0 0.69999999999921 0.0
0.0 0.7999999999994734 0.0
0.0 0.8999999999997368 0.0
0.5476528130348963 0.5422738530971136 0.0
9.46434718695938 0.5422738530971252 0.0
8.32730468532613 0.5332534822225969 0.0
1.684695314672824 0.5332534822225438 0.0
8.902805651027089 0.5495069639701882 0.0
1.109194348967266 0.5495069639690182 0.0
7.817830203679193 0.5553066490395973 0.0
2.1792174856472237 0.528390771903637 0.0
4.961041460293186 0.549319354151839 0.0
5.548009165428291 0.5498742440559763 0.0
4.364745096430759 0.5499435718519724 0.0
6.143615039826717 0.5502764485024143 0.0
3.769145809266072 0.5503029907660882 0.0
6.74518662607509 0.5447255768987052 0.0
3.174225596596224 0.5324103934131097 0.0
7.244452182243487 0.5303981967431025 0.0
2.6771296319354176 0.5393815118940002 0.0
8.616416666663042 0.7001921286738861 0.0
0.8282639344665514 0.7001013456707859 0.0
9.183736065526313 0.7001013456713036 0.0
1.395583333332481 0.7001921286728889 0.0
5.254106060599075 0.694043994152744 0.0
4.663863919048468 0.691462367154648 0.0
5.844319865837295 0.6915084207358128 0.0
4.068439925974143 0.6915184172873771 0.0
6.439762851419118 0.6915657210233408 0.0
3.4729943154471337 0.691574821909364 0.0
7.545664883754709 0.6980237877186588 0.0
9.191335985068319 0.35687987304323515 0.0
0.820664014925943 0.3568798730434852 0.0
1.402276979439103 0.36144632097096885 0.0
8.60972302055944 0.36144632097067436 0.0
7.550461689922496 0.36817249766176413 0.0
6.4403278053984625 0.35853699998681293 0.0
3.472432241628079 0.35858035040477076 0.0
4.070649727270247 0.36034046188818963 0.0
5.842125085723671 0.36035536805771473 0.0
4.659066719603841 0.34642445341840705 0.0
5.257142710365074 0.3598222782313327 0.0
8.0784119738553 0.34248866465416933 0.0
1.924075117768747 0.33948660613256976 0.0
8.08501881591813 0.7243124707144514 0.0
1.933216065232658 0.714186041836759 0.0
6.991580314144121 0.7214991463625006 0.0
2.4360249389903976 0.34488764824207974 0.0
7.003410713123902 0.34072077847418236 0.0
2.9245177622305527 0.34814216078765003 0.0
2.4291132336057277 0.7261016946702467 0.0
2.9263774836782117 0.7243954141745035 0.0
9.705053824559279 0.7295177021552801 0.0
0.3069461754389854 0.7295177021570887 0.0
9.702309470559369 0.3323475679475075 0.0
0.3096905294390627 0.3323475679474637 0.0
8.32022860662159 0.7761338123486328 0.0
1.691771393377538 0.7761338123490612 0.0
8.887277521719191 0.7841837352473817 0.0
1.09293277605474 0.7841859671359918 0.0
0.5880482539954717 0.7818841570364428 0.0
9.423951745998092 0.7818841570365285 0.0
8.867323436265435 0.2884285719742388 0.0
1.144676563731155 0.2884285719745848 0.0
8.37315299313169 0.27995185667473743 0.0
1.6388470068645231 0.2799518566751331 0.0
0.5652119546333989 0.2676453495647513 0.0
9.446788045361822 0.2676453495651598 0.0
5.604904149172106 0.29446343385711254 0.0
3.7300842048819227 0.28296524729780936 0.0
4.307826964989718 0.294458900644924 0.0
6.182633311559795 0.28296116907201085 0.0
5.022878992323143 0.7763980985118538 0.0
5.4937160340930635 0.7724953452322119 0.0
4.4250203760399085 0.7765485712601895 0.0
6.083172299642579 0.7768738429209257 0.0
3.829597865105137 0.7768799431516876 0.0
6.701095279153011 0.7934856853821193 0.0
3.21288864776639 0.7937884717549271 0.0
7.78471837091808 0.28296843739612176 0.0
7.280903151807777 0.793692835421818 0.0
2.1862388098179717 0.7741963111224737 0.0
7.811688072883944 0.7860962942545432 0.0
4.907803154414495 0.2918888649360911 0.0
7.2937946400696045 0.2789451368819924 0.0
3.2169206846187977 0.28253431719943395 0.0
6.695794150143623 0.28253974963272566 0.0
2.1620369076455956 0.24749766045964183 0.0
2.674105254439311 0.28194238369317787 0.0
2.67322354693487 0.7985399057471626 0.0
0.2202980634894686 0.5360832257905973 0.0
9.791701936510634 0.5360832257908263 0.0
3.624884972738575 0.8255239689394509 0.0
6.287882814068963 0.8255249686478855 0.0
4.2202753122171845 0.8255301598715301 0.0
5.692493650616456 0.8255312365025578 0.0
4.815647469550774 0.825541737033137 0.0
5.418319816341697 0.23487757506338003 0.0
4.494164025767657 0.2346608307115517 0.0
5.095626984106869 0.2339928261216232 0.0
6.018137641186841 0.23559307260073403 0.0
3.8945845110705606 0.23562639284048514 0.0
0.956177985214236 0.22572485290067063 0.0
9.055822014781324 0.22572485290058464 0.0
6.346835285871445 0.5242845374575117 0.0
3.565928345216078 0.524305510714367 0.0
[...]
POINT_DATA 1422
VECTORS vector double
1.0 0.0 0.0
0.0 0.0 0.0
0.0 0.0 0.0
0.0 0.0 0.0
1.07318409834 0.0 0.0
1.0 0.0 0.0
0.0 0.0 0.0
0.0 0.0 0.0
0.0 0.0 0.0
0.0 0.0 0.0
0.0 0.0 0.0
0.0 0.0 0.0
0.0 0.0 0.0
0.0 0.0 0.0
0.0 0.0 0.0
0.0 0.0 0.0
0.0 0.0 0.0
0.0 0.0 0.0
0.0 0.0 0.0
0.0 0.0 0.0
0.0 0.0 0.0
0.0 0.0 0.0
0.0 0.0 0.0
0.0 0.0 0.0
0.0 0.0 0.0
0.0 0.0 0.0
0.0 0.0 0.0
0.0 0.0 0.0
0.0 0.0 0.0
0.0 0.0 0.0
0.0 0.0 0.0
0.0 0.0 0.0
0.0 0.0 0.0
0.0 0.0 0.0
0.0 0.0 0.0
0.0 0.0 0.0
0.0 0.0 0.0
0.0 0.0 0.0
0.0 0.0 0.0
0.0 0.0 0.0
0.0 0.0 0.0
0.0 0.0 0.0
0.0 0.0 0.0
0.0 0.0 0.0
0.0 0.0 0.0
0.0 0.0 0.0
0.0 0.0 0.0
0.0 0.0 0.0
0.0 0.0 0.0
0.0 0.0 0.0
0.0 0.0 0.0
0.0 0.0 0.0
0.0 0.0 0.0
0.0 0.0 0.0
0.0 0.0 0.0
0.0 0.0 0.0
0.0 0.0 0.0
0.0 0.0 0.0
0.0 0.0 0.0
0.0 0.0 0.0
0.0 0.0 0.0
0.0 0.0 0.0
0.0 0.0 0.0
0.0 0.0 0.0
0.0 0.0 0.0
0.0 0.0 0.0
0.0 0.0 0.0
0.0 0.0 0.0
0.0 0.0 0.0
0.0 0.0 0.0
0.0 0.0 0.0
0.0 0.0 0.0
0.0 0.0 0.0
0.0 0.0 0.0
0.0 0.0 0.0
0.0 0.0 0.0
0.0 0.0 0.0
0.0 0.0 0.0
0.0 0.0 0.0
0.0 0.0 0.0
0.0 0.0 0.0
0.0 0.0 0.0
0.0 0.0 0.0
0.0 0.0 0.0
0.0 0.0 0.0
0.0 0.0 0.0
0.0 0.0 0.0
0.0 0.0 0.0
0.0 0.0 0.0
0.0 0.0 0.0
0.0 0.0 0.0
0.0 0.0 0.0
0.0 0.0 0.0
0.0 0.0 0.0
0.0 0.0 0.0
0.0 0.0 0.0
0.0 0.0 0.0
0.0 0.0 0.0
0.0 0.0 0.0
0.0 0.0 0.0
0.0 0.0 0.0
0.0 0.0 0.0
0.0 0.0 0.0
0.0 0.0 0.0
0.0 0.0 0.0
0.778453762838 0.0758932825287 0.0
1.05745548793 0.00535285563256 0.0
1.07216397428 0.000920335404749 0.0
1.07235842591 0.000788182719414 0.0
1.07370023372 6.77845242349e-05 0.0
1.07379364765 0.000101775333908 0.0
1.07435128652 7.4882542797e-05 0.0
1.07417449801 4.08599926318e-05 0.0
1.07447305042 8.12323949236e-05 0.0
1.07456560055 0.0 0.0
1.07442451985 0.0 0.0
1.07436176665 0.0 0.0
1.07447370457 0.0 0.0
1.07444490462 0.0 0.0
1.07464727204 0.0 0.0
1.07483779423 0.0 0.0
1.07504918166 0.0 0.0
1.07537303025 0.0 0.0
1.07570388905 0.0 0.0
1.07597653512 0.0 0.0
1.07655395052 0.0 0.0
1.07706065647 0.0 0.0
1.07726085456 0.0 0.0
1.07740045398 0.0 0.0
1.07747638355 0.0 0.0
1.0775944784 0.0 0.0
1.07778675838 0.0 0.0
1.07780190819 0.0 0.0
1.07775789263 0.0 0.0
1.07770605149 0.0 0.0
1.07744578405 0.0 0.0
1.0769613388 0.0 0.0
1.07643791715 0.0 0.0
1.07590449537 0.0 0.0
1.07524050948 0.0 0.0
1.07472021672 0.0 0.0
1.07412456573 0.0 0.0
1.07364678287 0.0 0.0
1.07333975405 0.0 0.0
1.07312685971 0.0 0.0
1.07297556605 0.0 0.0
1.07290948692 0.0 0.0
1.0728084234 0.0 0.0
1.07251168151 0.0 0.0
1.07224256235 0.0 0.0
1.07180653091 0.0 0.0
1.0712476699 0.0 0.0
1.07144569981 0.0 0.0
1.07107497185 0.0 0.0
1.07106230685 0.0 0.0
1.07103727223 0.0 0.0
1.07127040048 0.0 0.0
1.07117271428 0.0 0.0
1.07168732288 0.0 0.0
1.07197536736 0.0 0.0
1.07224396879 0.0 0.0
1.07265652273 0.0 0.0
1.07299986016 0.0 0.0
1.0735015325 0.0 0.0
1.07353452609 0.0 0.0
1.07428141138 0.0 0.0
1.07472170466 0.0 0.0
1.07501665922 0.0 0.0
1.07522653479 0.0 0.0
1.07511859316 0.0 0.0
1.07551375359 0.0 0.0
1.07560739388 0.0 0.0
1.07576568343 0.0 0.0
1.07587709219 0.0 0.0
1.07586128838 0.0 0.0
1.07610232031 0.0 0.0
1.07579563003 0.0 0.0
1.07613370216 0.0 0.0
1.07627091257 0.0 0.0
1.07632636592 0.0 0.0
1.07621317295 0.0 0.0
1.07597040339 0.0 0.0
1.07544885207 0.0 0.0
1.07496494594 0.0 0.0
1.07445884734 0.0 0.0
1.07378100503 0.0 0.0
1.0731805243 0.0 0.0
1.07266790809 0.0 0.0
1.07225065535 0.0 0.0
1.07197587545 0.0 0.0
1.07192113278 0.0 0.0
1.07192241542 0.0 0.0
1.07192171001 0.0 0.0
1.07204635468 0.0 0.0
1.07223763094 0.0 0.0
1.07265753229 0.0 0.0
1.07291775404 0.0 0.0
1.07328360166 0.0 0.0
1.07354130734 0.0 0.0
1.07387060662 0.0 0.0
1.07393755835 0.0 0.0
1.07356202436 0.0 0.0
1.0725487515 0.0 0.0
1.07139134045 0.0 0.0
1.06936500571 0.0 0.0
1.067229043 0.0 0.0
1.06402304323 0.0 0.0
1.06124738005 0.0 0.0
1.05818296922 0.0 0.0
1.05574758625 0.0 0.0
1.0390782047 0.0 0.0
1.02428328538 0.0 0.0
1.01023930193 0.0 0.0
1.0 0.0 0.0
1.0 0.0 0.0
1.0 0.0 0.0
1.0 0.0 0.0
1.0 0.0 0.0
1.0 0.0 0.0
1.0 0.0 0.0
1.0 0.0 0.0
1.0 0.0 0.0
1.08121112297 -0.038285055239 0.0
1.07360263897 -0.000242869863896 0.0
1.07526853236 0.000801890937126 0.0
1.07045356524 0.00251920018479 0.0
1.07650483732 0.00457060908996 0.0
1.07969180607 -5.48426742544e-05 0.0
1.08004886956 -0.00116182003756 0.0
1.06980264632 0.00101056447956 0.0
1.07271162617 0.00436695985787 0.0
1.0714282747 0.00212019646696 0.0
1.07429859702 0.00141706158314 0.0
1.06788221578 -0.00265052028468 0.0
1.07374635607 0.000876751693396 0.0
1.07465021118 0.00244084531555 0.0
1.07914876602 -0.00223806495833 0.0
1.07133101443 -0.0051775259386 0.0
1.07067112092 -0.00334357846781 0.0
1.08840351503 -0.00662837283593 0.0
1.09692963645 -0.0118454163733 0.0
1.07096955823 0.000410790581395 0.0
1.08177662425 0.00305142813703 0.0
1.07107593296 -0.00418626389627 0.0
1.08188784138 -0.00337961300319 0.0
1.06795255337 0.00229031465891 0.0
1.08093654617 -0.00492736763796 0.0
1.07737544122 -0.00972748498657 0.0
1.07940878251 0.00372409039345 0.0
1.08114735542 -0.00854309936466 0.0
1.07443427088 0.00113922065515 0.0
1.07389048367 -0.0110680846695 0.0
1.07503027189 0.00119868579246 0.0
1.07789829349 0.000459929689906 0.0
1.07719522832 -0.00282801012475 0.0
1.07283547884 -0.00170033546129 0.0
1.07672874835 0.000669449987574 0.0
1.07614714459 3.47759598478e-05 0.0
1.07043976093 0.000434395968847 0.0
1.0754114435 0.000953521520097 0.0
1.07224489273 0.00116709586365 0.0
1.07830549454 0.000395807468556 0.0
1.0718911486 0.000933349349125 0.0
1.08471720013 0.00438416327105 0.0
1.07719177913 -0.000464405960723 0.0
1.06646014427 0.00751835094578 0.0
1.07141279093 -0.00082133356714 0.0
1.07239888733 -0.000433645092627 0.0
1.07491371115 -0.00267525936835 0.0
1.07144316614 -0.00302436808326 0.0
1.07341071411 -0.0166826944752 0.0
1.08225441196 0.000804084902229 0.0
1.10338938972 -0.125514642223 0.0
1.07418646495 3.86341708129e-05 0.0
1.03068922312 -0.0425382704769 0.0
1.04761010869 0.00844967572308 0.0
1.04478825098 0.00289603182718 0.0
1.07345556604 0.0162198917508 0.0
1.07273764213 0.018141979878 0.0
1.10117448259 -0.0249208233699 0.0
1.07049801959 0.00392872190164 0.0
1.07653481961 0.00134445060657 0.0
1.07515750092 -0.00174901251443 0.0
1.07745146401 0.000237929889687 0.0
1.07304759514 0.00114313192967 0.0
1.05593961367 -0.0191242902969 0.0
1.07435230555 0.000241196125757 0.0
1.07123598073 0.000731231879975 0.0
1.07578574228 0.000406105495943 0.0
1.07566418565 0.000466702588259 0.0
1.07094975358 -0.00107383195281 0.0
1.06963504816 0.00798807402573 0.0
1.07039222002 0.0129047123795 0.0
1.06836386168 0.00111639114331 0.0
1.06670523889 -0.000916226050865 0.0
1.07199691956 0.000826943052249 0.0
1.06600601092 0.00191470470063 0.0
1.05981114019 0.011260994844 0.0
1.07802068445 -0.000888815685425 0.0
1.04857325986 -0.0164611186874 0.0
1.06057264943 0.00849816718585 0.0
1.0666103147 0.00281340986312 0.0
1.07396310861 0.00142837564598 0.0
1.07411734327 -0.00186480965888 0.0
1.07684662732 -0.00101818065797 0.0
1.07334807193 -2.30793332795e-05 0.0
1.07150748168 0.000186869940382 0.0
1.07258941551 -0.00159702756939 0.0
1.04719018936 -0.00173221503565 0.0
1.0374202032 -0.0865757136448 0.0
1.07415666772 0.000602547260405 0.0
1.03238059873 0.00684706916835 0.0
1.03871257757 -0.0146480606456 0.0
1.03562298726 0.0203674325566 0.0
1.04353208631 -0.00850916168025 0.0
1.0377972117 0.0233041729325 0.0
1.0718666991 0.000718589634759 0.0
1.07529731967 0.000426128637776 0.0
1.07294395231 0.00105531202924 0.0
1.0706654949 -0.000361527487293 0.0
1.07574381903 0.000102083029483 0.0
1.0727679627 -0.00429337630098 0.0
1.0753904205 0.000993828716972 0.0
1.07187822912 -0.00453325093959 0.0
1.0760665679 0.00232654599409 0.0
1.07697598909 0.000412269512765 0.0
1.06964034593 0.0016233417099 0.0
1.07840283138 0.0017609526532 0.0
1.07154471669 0.000952568094359 0.0
1.0733701 0.000936278435949 0.0
1.08132731135 -0.0200373574475 0.0
1.07807097915 -0.000856709773992 0.0
1.07502465011 0.00335581712114 0.0
1.07011524635 -0.000881189562917 0.0
1.07665688341 0.00228107549337 0.0
1.07351571974 -0.0060963847129 0.0
1.07123550147 0.00185147575042 0.0
1.0719454784 0.00104259279982 0.0
1.07094601793 0.00158130114303 0.0
1.07563849075 -0.000181104377729 0.0
1.07714624105 0.00177697386601 0.0
1.07977183812 0.00184048748521 0.0
1.07342989891 0.00247700911115 0.0
1.08295588925 -0.00757964622269 0.0
1.07634588882 -0.00618767207159 0.0
1.07573486626 -0.00189794889653 0.0
1.0783317055 0.000793889539485 0.0
1.07559179796 -0.00121684236753 0.0
1.06872177087 0.000411618504097 0.0
1.07903493028 -0.00373602010359 0.0
0.977975068295 -0.0264627146397 0.0
0.990357951062 0.0208389184789 0.0
0.99992986413 0.0256661681816 0.0
1.01681697299 0.0149386855761 0.0
1.01573896381 -0.00637799810586 0.0
0.990348063084 -0.016615080388 0.0
1.01340231259 0.0165124294027 0.0
1.01692244895 0.0231877133126 0.0
1.0145359316 0.00292735286622 0.0
1.07800284113 -0.000236815630069 0.0
0.966161686798 -0.00377814113588 0.0
1.07343046061 -0.000940783604122 0.0
1.07305441654 -8.87453575011e-05 0.0
1.07570684203 -0.00112675543873 0.0
1.07253722241 0.000610275175862 0.0
1.07783771444 0.000211292148853 0.0
0.973106066505 -0.0213020017715 0.0
0.975885251482 -0.000423397361058 0.0
0.959283541665 -0.0032696285698 0.0
0.9975680756 -0.0439757847539 0.0
1.01554339524 -0.000753189337592 0.0
1.10227668675 -0.160910377983 0.0
0.989932728265 -0.0111294336708 0.0
1.07563297864 -0.00145294142774 0.0
0.984297790495 -0.0254641929655 0.0
0.993620865716 0.0185097864809 0.0
0.982228870253 -0.0247553563636 0.0
0.974094019507 -0.0016509658276 0.0
0.960226774021 -0.00228296407353 0.0
1.07457155173 0.000410962853454 0.0
1.06494579388 -0.00812967140456 0.0
1.07402573702 0.000573800545725 0.0
1.07753468875 0.000259142011413 0.0
0.999439581948 -0.0239715372728 0.0
1.07432382047 7.11089665489e-05 0.0
1.00683757877 -0.0299669523444 0.0
1.07633967052 0.000312273832646 0.0
1.07220811796 -0.000809464352687 0.0
1.07573471149 0.000149977990318 0.0
1.07091517641 0.000244202246767 0.0
1.07461497755 0.000679929585035 0.0
1.07432949338 7.53057519658e-05 0.0
1.03519735074 -0.0187707858879 0.0
1.07545943989 0.00214938347268 0.0
1.07710496153 -0.00382395459823 0.0
0.991921389155 0.0278506688001 0.0
1.00548608647 -0.0208010620673 0.0
1.07167784749 -0.000185677631366 0.0
1.0728637448 -0.000461053781392 0.0
1.07653720159 -0.000132518097487 0.0
0.948789214792 -0.0141503368384 0.0
1.07718756045 0.000614076288967 0.0
1.07454180057 -0.000117554314614 0.0
1.07756450209 0.00060274622265 0.0
1.07212417887 0.00133439939999 0.0
0.964287117214 -0.0392205524922 0.0
1.07142884854 0.00679111569465 0.0
0.955957277516 0.030460780456 0.0
0.928971866528 -0.00753880206599 0.0
0.979891628554 -0.0223075018805 0.0
1.07184057455 0.000398128978035 0.0
1.0723782508 -0.00203851927155 0.0
1.06436126489 -0.00576865746286 0.0
1.07695693295 -0.0011487944259 0.0
1.07397411076 -0.00128194880658 0.0
1.07873903454 -0.000453137371171 0.0
1.0720917387 -0.000647932615099 0.0
0.966391847314 0.016012098688 0.0
1.08251030915 -0.0039275910388 0.0
1.07310537186 0.00051582124608 0.0
1.07678137777 -0.00209583326436 0.0
1.07003881681 0.00411643377924 0.0
1.07671029051 0.00587737962038 0.0
1.06692970033 -0.00629996967584 0.0
1.07432496793 0.00358158051766 0.0
1.07691453113 0.00947879842133 0.0
1.0723784813 0.000650346232249 0.0
1.07042936396 -0.00541118836341 0.0
1.06963228293 0.0104524534075 0.0
1.08201558007 -0.000506390399773 0.0
1.06999737731 -0.00073479380442 0.0
1.07554180001 7.25647415819e-05 0.0
1.07289960206 0.00189209506459 0.0
1.07525877182 -1.89077014869e-05 0.0
1.07449209948 -0.0792497278016 0.0
1.07539824998 0.000562072712578 0.0
1.07370110636 0.00163016574102 0.0
1.08229310884 0.00944492741637 0.0
1.08956376191 0.00388218045959 0.0
1.07006190643 0.00535237506157 0.0
1.07166410521 0.00115816731185 0.0
1.07128955727 0.00143738663165 0.0
1.08039982869 0.000514342038391 0.0
1.0743768677 6.31028245329e-05 0.0
1.05344826824 -0.0364335756691 0.0
1.07572702538 0.00543553787586 0.0
1.06820036374 -0.000975580713035 0.0
1.07086409146 -0.000114938198551 0.0
1.07150281405 -0.0017586872863 0.0
1.07141596592 0.00619516461167 0.0
1.06740003504 -0.00037339150327 0.0
1.07010387512 -0.00150456093928 0.0
1.06725894195 -0.00805007077888 0.0
1.07288447986 -0.0032609891982 0.0
1.0737374243 0.00203540219805 0.0
1.03042603272 -0.117485563933 0.0
1.07404981965 8.70300386539e-05 0.0
1.01181057874 -0.0474291064805 0.0
1.06879392296 -0.00145629638972 0.0
1.07765532848 0.00160631279353 0.0
1.07617605253 0.000253992326689 0.0
1.07323476217 -0.00271344802552 0.0
1.11186426055 -0.0639990155206 0.0
1.07773173911 -0.00566030289242 0.0
1.09202869762 -0.0242056427418 0.0
1.07175970565 0.00161169433125 0.0
1.07727568423 8.85045514104e-05 0.0
1.07307158226 0.00228931867529 0.0
1.07045682788 -0.0245210368457 0.0
1.07406468158 0.000406455987067 0.0
1.07784027148 -0.00086321096528 0.0
1.0742227712 2.49880909393e-06 0.0
1.07872833166 -0.00177046658996 0.0
1.06749286449 0.0024715839502 0.0
1.07265056204 -0.0127444431387 0.0
1.07509067266 0.0028392939707 0.0
1.07100558639 -0.00418939793058 0.0
1.07404352132 -0.00374100648365 0.0
1.08072749808 0.00100173536763 0.0
1.07970447051 0.000415621363035 0.0
1.0709722312 -0.00475716858149 0.0
1.06467582916 0.00208112215529 0.0
1.07450436001 0.00231327475612 0.0
1.07080601002 0.00122583157173 0.0
1.07586207937 0.000739757425979 0.0
1.07076978516 -0.00238639673471 0.0
1.07566217701 0.00111664500547 0.0
0.926331899469 0.00657713466983 0.0
0.853768052081 0.0280996975391 0.0
0.86086983031 0.0119333659971 0.0
0.847853663257 0.024746484643 0.0
0.873202865203 -0.0260754642142 0.0
1.07153352084 0.000432500728071 0.0
0.848813904417 0.023774905043 0.0
1.07548568924 0.00024298400639 0.0
1.0734487493 0.000782376139637 0.0
1.07112227854 -0.000410819616242 0.0
1.07588384784 0.00014074793559 0.0
1.07311592792 -0.000308231518312 0.0
1.07787910871 0.000142521996462 0.0
1.07297092987 -0.00164873409282 0.0
1.0757738866 0.000734993972655 0.0
0.82217182807 0.00750691683893 0.0
0.826706189364 -0.00345158330524 0.0
0.88509229925 0.0139370410344 0.0
1.07500148744 0.000492660955947 0.0
0.882754118188 -0.00576779682692 0.0
0.782489745894 -0.0262433550426 0.0
0.80440108586 0.00886517053801 0.0
0.805341982063 0.0136483156586 0.0
0.829348694316 -0.00289252068596 0.0
1.07400235421 -0.00103196895137 0.0
0.831058407954 0.0288976115315 0.0
0.770287166504 0.0405137149394 0.0
0.866976828222 -0.00524009254921 0.0
0.855575645091 0.012555073386 0.0
0.960238288787 -0.0962671126135 0.0
1.0757923098 0.000110697967606 0.0
1.07080503706 2.70958472776e-05 0.0
1.07303502573 -4.41597995043e-05 0.0
0.90528146428 0.00129208723006 0.0
0.874247240908 0.00032385619177 0.0
0.786724052868 -0.0409387020589 0.0
0.769295039818 0.0313221067499 0.0
0.875732402713 0.00091105315287 0.0
1.07598784358 -0.00067738416001 0.0
1.07941918156 0.000650337038283 0.0
1.08291513493 -0.000722985898177 0.0
1.07443292033 0.000197304748506 0.0
1.05298525658 -0.00769959422764 0.0
1.06856991983 0.00144219863544 0.0
1.07297406807 0.000564915290173 0.0
1.07759167449 0.000183448508671 0.0
1.04188828513 -0.0600272175254 0.0
1.0743580364 9.22184692477e-05 0.0
1.07746139025 -0.000531219194573 0.0
0.770268563824 0.0317287288255 0.0
1.07150490441 0.000691348392592 0.0
1.07166056265 8.73951772589e-05 0.0
1.07279737371 -0.000642362577653 0.0
1.07428825757 -3.51359715567e-05 0.0
1.02757283305 -0.0237194929054 0.0
1.06915149215 -0.00363285331362 0.0
1.07516793334 0.000492746593462 0.0
0.679243806958 -0.00757405312851 0.0
1.075751523 0.00775890957473 0.0
1.0822357077 0.00342204157631 0.0
0.65349751635 -0.0201416803448 0.0
0.766341168242 -0.0312201132576 0.0
1.07631376335 0.000730479613153 0.0
1.07190527729 -0.00165724749842 0.0
1.07069071667 0.000608587349587 0.0
1.07595517563 0.000241871028533 0.0
1.0721401967 0.00401662785888 0.0
1.07326239366 0.00285952865973 0.0
0.752262213772 0.00319541197339 0.0
1.06662674715 -0.00299469485804 0.0
1.07308885052 0.00104375303844 0.0
1.07181942238 0.00721747246284 0.0
0.751343416613 -0.0237958662521 0.0
1.07481456615 0.00125853269102 0.0
0.680521548354 0.0175001861293 0.0
0.716820525362 -0.0179203374752 0.0
0.685440250602 0.0149188220748 0.0
0.703367626307 0.0299021586021 0.0
1.08084664671 -0.000974869166702 0.0
1.07556644865 -0.00236741644825 0.0
1.07744963288 -0.00171386123728 0.0
1.07118005388 0.000313312367451 0.0
1.07569419083 0.000209602381362 0.0
1.0743495885 0.000761234381794 0.0
1.07436021672 0.000660699267342 0.0
1.06828933345 -0.0136507522436 0.0
1.0732218158 -0.000809985630783 0.0
1.07410890462 0.00110450188645 0.0
1.07758324691 0.000339521280967 0.0
1.076889065 -4.15424403831e-05 0.0
1.07366348448 -0.000788610564109 0.0
1.09399742395 -0.0406671826507 0.0
1.07611962517 0.000217478642665 0.0
1.07177599326 -0.000609617391708 0.0
1.07704097031 -0.00179826500465 0.0
1.07656106517 0.00255169484326 0.0
1.0745881481 -0.000805608222357 0.0
1.07218288321 0.000493625345412 0.0
1.07764578975 0.00270362740526 0.0
0.717259468251 -0.00497717301094 0.0
0.757050349691 -0.00239196171445 0.0
1.08192789263 -0.00049957579325 0.0
0.662326253086 0.00192935811285 0.0
1.06885592433 -0.00769522453819 0.0
1.07325139244 0.00256866160206 0.0
0.850027519453 -0.0156213795447 0.0
1.07070187172 0.000433237910881 0.0
1.06708199062 -0.00211114426128 0.0
1.07098467783 -0.0012911295587 0.0
1.06781019481 0.00474315497551 0.0
1.07265925566 0.000971348540286 0.0
1.07659250236 0.000658477536176 0.0
1.0738643764 -0.000666406090473 0.0
0.704991584311 0.0132802741189 0.0
0.738223709343 -0.0114776121302 0.0
0.649463162788 -0.0230226271088 0.0
1.07490085982 -0.000849320609046 0.0
1.07279215251 0.000517420992251 0.0
1.07572406246 -0.00437030932458 0.0
1.01231154575 -0.0598647977804 0.0
1.07326162472 0.000738376251318 0.0
1.07345525794 0.000491625217062 0.0
1.0774820806 0.00014723776433 0.0
1.07218040101 0.000443486296404 0.0
1.06915328519 0.00123743261081 0.0
1.07737830136 -0.00105416079913 0.0
1.07814197899 0.00270251883356 0.0
1.07559382465 -0.00514973781776 0.0
1.0775893071 0.000335176311458 0.0
1.07093287879 0.000849429747636 0.0
0.599611869026 -0.00620404827387 0.0
0.637295418123 0.0210018791549 0.0
0.705830811795 -0.0276111927534 0.0
1.07381161051 0.00146381733832 0.0
1.08020406019 -0.0126545969461 0.0
1.07847898176 0.000460541400756 0.0
1.07580398637 0.00189767312495 0.0
1.07187081726 -0.000295189260655 0.0
1.07293111428 0.00162497112864 0.0
1.08754099285 -0.0139093912254 0.0
1.07739471482 0.00371038811448 0.0
1.08076945596 -0.00151131077931 0.0
1.07139469057 -0.000322302749225 0.0
0.726755895223 -0.00946851477779 0.0
1.07962562255 -0.00589740263 0.0
0.829099821269 0.0072352400625 0.0
0.780356999828 0.00765681880146 0.0
1.07257561391 0.00135117695889 0.0
0.54173354366 0.00210601835752 0.0
0.531948200509 -0.0075823498529 0.0
1.07243503396 -0.000444939546149 0.0
1.07636444549 9.02676950364e-05 0.0
1.07755823038 -0.000294113454153 0.0
1.07191661695 0.0010153179255 0.0
0.624119340154 0.00161839680281 0.0
1.07769767842 -0.00399796276901 0.0
1.07537167994 0.000583027210095 0.0
1.07885104711 0.00605156066764 0.0
1.07111500068 0.00580257738053 0.0
1.06627501009 -0.00863714480492 0.0
1.06827225972 0.0110281540984 0.0
1.06666073205 0.00654057711165 0.0
1.0687805623 0.00521639101661 0.0
1.07746380349 0.00358062076424 0.0
1.06570798093 -0.0165230809261 0.0
1.07023770557 0.0103371828061 0.0
1.07823337524 -0.000501127564793 0.0
1.06173505055 -0.0128435970814 0.0
1.06292431182 0.00821539249446 0.0
1.02841191725 -0.111711691721 0.0
1.07133273017 -0.00668517297624 0.0
1.07484059698 0.00098435486259 0.0
1.06322407931 -0.0975997607519 0.0
1.07495117309 0.000944451997235 0.0
1.06964032038 0.0163738602698 0.0
1.00376045911 -0.0242121890284 0.0
1.0741176265 1.23548204421e-05 0.0
1.07372339866 -0.00286773169973 0.0
1.07725740768 0.00133823239802 0.0
1.07373757697 -0.00227518892528 0.0
1.0714658625 0.000835845010205 0.0
1.07645013136 -0.000324327264296 0.0
1.06981209849 0.000721552484101 0.0
1.07544803716 0.000468776762924 0.0
1.07280914632 -0.000172717088315 0.0
1.07607057416 0.000939840359789 0.0
1.07198177426 0.00118948260806 0.0