# vtk DataFile Version 2.0
2D Simulation Python
ASCII
DATASET UNSTRUCTURED_GRID
FIELD FieldData 1
NODES 1 2 int
2790 1289

POINTS 2790 double
0.0 1.0 0.0
1.725 1.0 0.0
8.275 1.0 0.0
20.0 1.0 0.0
20.0 0.0 0.0
0.0 0.0 0.0
0.1916666666663293 1.0 0.0
0.3833333333324708 1.0 0.0
0.574999999998553 1.0 0.0
0.7666666666645966 1.0 0.0
0.9583333333312576 1.0 0.0
1.149999999998384 1.0 0.0
1.341666666665662 1.0 0.0
1.533333333332819 1.0 0.0
0.0958333333331406 1.0 0.0
0.2874999999994247 1.0 0.0
0.4791666666655395 1.0 0.0
0.6708333333315728 1.0 0.0
0.8624999999976626 1.0 0.0
1.054166666664886 1.0 0.0
1.245833333332057 1.0 0.0
1.437499999999343 1.0 0.0
1.629166666666455 1.0 0.0
1.92348484848444 1.0 0.0
2.121969696968978 1.0 0.0
2.320454545453434 1.0 0.0
2.518939393937826 1.0 0.0
2.717424242422235 1.0 0.0
2.915909090906411 1.0 0.0
3.1143939393908 1.0 0.0
3.312878787875129 1.0 0.0
3.511363636359531 1.0 0.0
3.709848484843827 1.0 0.0
3.90833333332816 1.0 0.0
4.106818181812215 1.0 0.0
4.305303030296804 1.0 0.0
4.503787878781365 1.0 0.0
4.702272727265711 1.0 0.0
4.900757575750005 1.0 0.0
5.099242424235156 1.0 0.0
5.297727272720327 1.0 0.0
5.496212121205663 1.0 0.0
5.694696969690998 1.0 0.0
5.89318181817668 1.0 0.0
6.09166666666213 1.0 0.0
6.290151515147423 1.0 0.0
6.488636363633031 1.0 0.0
6.687121212118713 1.0 0.0
6.885606060604342 1.0 0.0
7.084090909089381 1.0 0.0
7.282575757574369 1.0 0.0
7.481060606059355 1.0 0.0
7.679545454544343 1.0 0.0
7.878030303029329 1.0 0.0
8.076515151514705 1.0 0.0
1.824242424242199 1.0 0.0
2.022727272726695 1.0 0.0
2.221212121211181 1.0 0.0
2.41969696969563 1.0 0.0
2.618181818180092 1.0 0.0
2.816666666664316 1.0 0.0
3.015151515148624 1.0 0.0
3.213636363633039 1.0 0.0
3.412121212117267 1.0 0.0
3.610606060601583 1.0 0.0
3.809090909085975 1.0 0.0
4.007575757570153 1.0 0.0
4.206060606054539 1.0 0.0
4.404545454539001 1.0 0.0
4.603030303023853 1.0 0.0
4.801515151507715 1.0 0.0
4.999999999992074 1.0 0.0
5.198484848477777 1.0 0.0
5.396969696963081 1.0 0.0
5.595454545448261 1.0 0.0
5.793939393933949 1.0 0.0
5.992424242419331 1.0 0.0
6.190909090904785 1.0 0.0
6.389393939390224 1.0 0.0
6.587878787875795 1.0 0.0
6.786363636361617 1.0 0.0
6.984848484846598 1.0 0.0
7.183333333331875 1.0 0.0
7.381818181816625 1.0 0.0
7.580303030301849 1.0 0.0
7.778787878786936 1.0 0.0
7.977272727272114 1.0 0.0
8.175757575757618 1.0 0.0
8.473728813558951 1.0 0.0
8.672457627118133 1.0 0.0
8.871186440676855 1.0 0.0
9.069915254236154 1.0 0.0
9.268644067794812 1.0 0.0
9.467372881354057 1.0 0.0
9.666101694912944 1.0 0.0
9.864830508471961 1.0 0.0
10.06355932203108 1.0 0.0
10.26228813558986 1.0 0.0
10.46101694914916 1.0 0.0
10.65974576270777 1.0 0.0
10.85847457626706 1.0 0.0
11.05720338982589 1.0 0.0
11.25593220338497 1.0 0.0
11.45466101694402 1.0 0.0
11.65338983050287 1.0 0.0
11.85211864406215 1.0 0.0
12.05084745762035 1.0 0.0
12.24957627117938 1.0 0.0
12.44830508473794 1.0 0.0
12.64703389829659 1.0 0.0
12.84576271185557 1.0 0.0
13.04449152541379 1.0 0.0
13.24322033897301 1.0 0.0
13.44194915253121 1.0 0.0
13.6406779660903 1.0 0.0
13.83940677964874 1.0 0.0
14.03813559320751 1.0 0.0
14.23686440676681 1.0 0.0
14.43559322032663 1.0 0.0
14.63432203388679 1.0 0.0
14.8330508474463 1.0 0.0
15.0317796610067 1.0 0.0
15.23050847456608 1.0 0.0
15.42923728812645 1.0 0.0
15.62796610168606 1.0 0.0
15.82669491524602 1.0 0.0
16.02542372880584 1.0 0.0
16.22415254236431 1.0 0.0
16.42288135592496 1.0 0.0
16.62161016948498 1.0 0.0
16.82033898304518 1.0 0.0
17.01906779660567 1.0 0.0
17.2177966101654 1.0 0.0
17.41652542372565 1.0 0.0
17.61525423728425 1.0 0.0
17.81398305084494 1.0 0.0
18.01271186440355 1.0 0.0
18.21144067796387 1.0 0.0
18.41016949152309 1.0 0.0
18.6088983050827 1.0 0.0
18.80762711864282 1.0 0.0
19.00635593220153 1.0 0.0
19.20508474576211 1.0 0.0
19.40381355932072 1.0 0.0
19.60254237288117 1.0 0.0
19.80127118644013 1.0 0.0
8.374364406779554 1.0 0.0
8.573093220338519 1.0 0.0
8.771822033897509 1.0 0.0
8.970550847456504 1.0 0.0
9.169279661015429 1.0 0.0
9.368008474574502 1.0 0.0
9.566737288133496 1.0 0.0
9.765466101692677 1.0 0.0
9.964194915251602 1.0 0.0
10.16292372881015 1.0 0.0
10.36165254236967 1.0 0.0
10.56038135592849 1.0 0.0
10.75911016948728 1.0 0.0
10.95783898304648 1.0 0.0
11.15656779660554 1.0 0.0
11.35529661016447 1.0 0.0
11.55402542372345 1.0 0.0
11.75275423728253 1.0 0.0
11.95148305084111 1.0 0.0
12.15021186439983 1.0 0.0
12.34894067795883 1.0 0.0
12.54766949151722 1.0 0.0
12.74639830507616 1.0 0.0
12.94512711863486 1.0 0.0
13.14385593219357 1.0 0.0
13.34258474575207 1.0 0.0
13.54131355931069 1.0 0.0
13.7400423728695 1.0 0.0
13.93877118642822 1.0 0.0
14.13749999998697 1.0 0.0
14.33622881354686 1.0 0.0
14.53495762710678 1.0 0.0
14.73368644066656 1.0 0.0
14.93241525422655 1.0 0.0
15.13114406778625 1.0 0.0
15.32987288134641 1.0 0.0
15.52860169490635 1.0 0.0
15.7273305084661 1.0 0.0
15.9260593220261 1.0 0.0
16.12478813558534 1.0 0.0
16.32351694914468 1.0 0.0
16.52224576270527 1.0 0.0
16.72097457626511 1.0 0.0
16.91970338982543 1.0 0.0
17.11843220338561 1.0 0.0
17.31716101694539 1.0 0.0
17.51588983050497 1.0 0.0
17.71461864406449 1.0 0.0
17.91334745762401 1.0 0.0
18.11207627118383 1.0 0.0
18.31080508474307 1.0 0.0
18.50953389830311 1.0 0.0
18.70826271186271 1.0 0.0
18.90699152542239 1.0 0.0
19.10572033898203 1.0 0.0
19.30444915254171 1.0 0.0
19.50317796610107 1.0 0.0
19.70190677966065 1.0 0.0
19.90063559322003 1.0 0.0
20.0 0.7999999999999998 0.0
20.0 0.6000000000013869 0.0
20.0 0.4000000000016644 0.0
20.0 0.2000000000008322 0.0
20.0 0.9000000000000369 0.0
20.0 0.7000000000005904 0.0
20.0 0.5000000000017577 0.0
20.0 0.3000000000012483 0.0
20.0 0.1000000000004161 0.0
19.8 0.0 0.0
19.6 0.0 0.0
19.4 0.0 0.0
19.2 0.0 0.0
19.0 0.0 0.0
18.8 0.0 0.0
18.6 0.0 0.0
18.4 0.0 0.0
18.2 0.0 0.0
18.0 0.0 0.0
17.8 0.0 0.0
17.59999999999999 0.0 0.0
17.4 0.0 0.0
17.2 0.0 0.0
16.99999999999999 0.0 0.0
16.79999999999999 0.0 0.0
16.59999999999999 0.0 0.0
16.4 0.0 0.0
16.2 0.0 0.0
15.99999999999999 0.0 0.0
15.79999999999999 0.0 0.0
15.59999999999999 0.0 0.0
15.4 0.0 0.0
15.2 0.0 0.0
15.0 0.0 0.0
14.79999999999999 0.0 0.0
14.59999999999999 0.0 0.0
14.4 0.0 0.0
14.2 0.0 0.0
13.99999999999999 0.0 0.0
13.8 0.0 0.0
13.59999999999999 0.0 0.0
13.4 0.0 0.0
13.2 0.0 0.0
13.0 0.0 0.0
12.79999999999999 0.0 0.0
12.6 0.0 0.0
12.4 0.0 0.0
12.2 0.0 0.0
11.99999999999999 0.0 0.0
11.8 0.0 0.0
11.6 0.0 0.0
11.4 0.0 0.0
11.2 0.0 0.0
11.0 0.0 0.0
10.8 0.0 0.0
10.6 0.0 0.0
10.4 0.0 0.0
10.2 0.0 0.0
9.999999999999998 0.0 0.0
9.799999999999995 0.0 0.0
9.599999999999998 0.0 0.0
9.399999999999997 0.0 0.0
9.199999999999998 0.0 0.0
8.999999999999996 0.0 0.0
8.799999999999997 0.0 0.0
8.599999999999996 0.0 0.0
8.399999999999999 0.0 0.0
8.199999999999996 0.0 0.0
7.999999999999998 0.0 0.0
7.799999999999997 0.0 0.0
7.599999999999998 0.0 0.0
7.399999999999999 0.0 0.0
7.199999999999998 0.0 0.0
6.999999999999995 0.0 0.0
6.799999999999995 0.0 0.0
6.599999999999998 0.0 0.0
6.399999999999997 0.0 0.0
6.199999999999996 0.0 0.0
5.999999999999998 0.0 0.0
5.799999999999999 0.0 0.0
5.599999999999996 0.0 0.0
5.399999999999995 0.0 0.0
5.199999999999996 0.0 0.0
4.999999999999998 0.0 0.0
4.799999999999997 0.0 0.0
4.599999999999998 0.0 0.0
4.399999999999999 0.0 0.0
4.199999999999999 0.0 0.0
3.999999999999996 0.0 0.0
3.799999999999997 0.0 0.0
3.599999999999998 0.0 0.0
3.399999999999999 0.0 0.0
3.199999999999999 0.0 0.0
3.0 0.0 0.0
2.800000000000001 0.0 0.0
2.599999999999998 0.0 0.0
2.399999999999999 0.0 0.0
2.199999999999996 0.0 0.0
1.999999999999996 0.0 0.0
1.800000000000001 0.0 0.0
1.599999999999998 0.0 0.0
1.399999999999999 0.0 0.0
1.200000000000003 0.0 0.0
1.0 0.0 0.0
0.7999999999999972 0.0 0.0
0.5999999999999979 0.0 0.0
0.3999999999999986 0.0 0.0
0.1999999999999993 0.0 0.0
19.90000000000022 0.0 0.0
19.69999999999997 0.0 0.0
19.49999999999987 0.0 0.0
19.30000000000005 0.0 0.0
19.09999999999999 0.0 0.0
18.89999999999987 0.0 0.0
18.7 0.0 0.0
18.49999999999999 0.0 0.0
18.30000000000001 0.0 0.0
18.09999999999987 0.0 0.0
17.90000000000013 0.0 0.0
17.7 0.0 0.0
17.49999999999987 0.0 0.0
17.30000000000025 0.0 0.0
17.10000000000001 0.0 0.0
16.90000000000005 0.0 0.0
16.70000000000003 0.0 0.0
16.50000000000006 0.0 0.0
16.29999999999997 0.0 0.0
16.09999999999999 0.0 0.0
15.89999999999987 0.0 0.0
15.69999999999999 0.0 0.0
15.49999999999999 0.0 0.0
15.3 0.0 0.0
15.10000000000003 0.0 0.0
14.90000000000005 0.0 0.0
14.69999999999992 0.0 0.0
14.49999999999996 0.0 0.0
14.29999999999999 0.0 0.0
14.10000000000008 0.0 0.0
13.89999999999988 0.0 0.0
13.70000000000003 0.0 0.0
13.50000000000004 0.0 0.0
13.29999999999992 0.0 0.0
13.09999999999995 0.0 0.0
12.90000000000016 0.0 0.0
12.7 0.0 0.0
12.49999999999986 0.0 0.0
12.30000000000003 0.0 0.0
12.10000000000016 0.0 0.0
11.90000000000005 0.0 0.0
11.69999999999994 0.0 0.0
11.49999999999993 0.0 0.0
11.30000000000005 0.0 0.0
11.0999999999999 0.0 0.0
10.90000000000004 0.0 0.0
10.69999999999995 0.0 0.0
10.50000000000012 0.0 0.0
10.29999999999999 0.0 0.0
10.09999999999993 0.0 0.0
9.900000000000077 0.0 0.0
9.699999999999969 0.0 0.0
9.499999999999982 0.0 0.0
9.299999999999969 0.0 0.0
9.100000000000108 0.0 0.0
8.899999999999972 0.0 0.0
8.699999999999958 0.0 0.0
8.499999999999998 0.0 0.0
8.30000000000003 0.0 0.0
8.099999999999977 0.0 0.0
7.899999999999974 0.0 0.0
7.700000000000166 0.0 0.0
7.499999999999854 0.0 0.0
7.299999999999997 0.0 0.0
7.100000000000019 0.0 0.0
6.900000000000002 0.0 0.0
6.699999999999974 0.0 0.0
6.500000000000037 0.0 0.0
6.299999999999981 0.0 0.0
6.100000000000014 0.0 0.0
5.899999999999949 0.0 0.0
5.700000000000049 0.0 0.0
5.499999999999956 0.0 0.0
5.300000000000118 0.0 0.0
5.100000000000005 0.0 0.0
4.900000000000109 0.0 0.0
4.699999999999982 0.0 0.0
4.499999999999936 0.0 0.0
4.300000000000137 0.0 0.0
4.100000000000012 0.0 0.0
3.899999999999888 0.0 0.0
3.69999999999974 0.0 0.0
3.500000000000046 0.0 0.0
3.299999999999965 0.0 0.0
3.099999999999817 0.0 0.0
2.900000000000066 0.0 0.0
2.699999999999793 0.0 0.0
2.500000000000064 0.0 0.0
2.299999999999823 0.0 0.0
[...]
POINT_DATA 2790
VECTORS vector double
1.0 0.0 0.0
0.0 0.0 0.0
0.0 0.0 0.0
0.0 0.0 0.0
1.57601670203 0.0 0.0
1.0 0.0 0.0
0.0 0.0 0.0
0.0 0.0 0.0
0.0 0.0 0.0
0.0 0.0 0.0
0.0 0.0 0.0
0.0 0.0 0.0
0.0 0.0 0.0
0.0 0.0 0.0
0.0 0.0 0.0
0.0 0.0 0.0
0.0 0.0 0.0
0.0 0.0 0.0
0.0 0.0 0.0
0.0 0.0 0.0
0.0 0.0 0.0
0.0 0.0 0.0
0.0 0.0 0.0
0.0 0.0 0.0
0.0 0.0 0.0
0.0 0.0 0.0
0.0 0.0 0.0
0.0 0.0 0.0
0.0 0.0 0.0
0.0 0.0 0.0
0.0 0.0 0.0
0.0 0.0 0.0
0.0 0.0 0.0
0.0 0.0 0.0
0.0 0.0 0.0
0.0 0.0 0.0
0.0 0.0 0.0
0.0 0.0 0.0
0.0 0.0 0.0
0.0 0.0 0.0
0.0 0.0 0.0
0.0 0.0 0.0
0.0 0.0 0.0
0.0 0.0 0.0
0.0 0.0 0.0
0.0 0.0 0.0
0.0 0.0 0.0
0.0 0.0 0.0
0.0 0.0 0.0
0.0 0.0 0.0
0.0 0.0 0.0
0.0 0.0 0.0
0.0 0.0 0.0
0.0 0.0 0.0
0.0 0.0 0.0
0.0 0.0 0.0
0.0 0.0 0.0
0.0 0.0 0.0
0.0 0.0 0.0
0.0 0.0 0.0
0.0 0.0 0.0
0.0 0.0 0.0
0.0 0.0 0.0
0.0 0.0 0.0
0.0 0.0 0.0
0.0 0.0 0.0
0.0 0.0 0.0
0.0 0.0 0.0
0.0 0.0 0.0
0.0 0.0 0.0
0.0 0.0 0.0
0.0 0.0 0.0
0.0 0.0 0.0
0.0 0.0 0.0
0.0 0.0 0.0
0.0 0.0 0.0
0.0 0.0 0.0
0.0 0.0 0.0
0.0 0.0 0.0
0.0 0.0 0.0
0.0 0.0 0.0
0.0 0.0 0.0
0.0 0.0 0.0
0.0 0.0 0.0
0.0 0.0 0.0
0.0 0.0 0.0
0.0 0.0 0.0
0.0 0.0 0.0
0.0 0.0 0.0
0.0 0.0 0.0
0.0 0.0 0.0
0.0 0.0 0.0
0.0 0.0 0.0
0.0 0.0 0.0
0.0 0.0 0.0
0.0 0.0 0.0
0.0 0.0 0.0
0.0 0.0 0.0
0.0 0.0 0.0
0.0 0.0 0.0
0.0 0.0 0.0
0.0 0.0 0.0
0.0 0.0 0.0
0.0 0.0 0.0
0.0 0.0 0.0
0.0 0.0 0.0
0.0 0.0 0.0
0.0 0.0 0.0
0.0 0.0 0.0
0.0 0.0 0.0
0.0 0.0 0.0
0.0 0.0 0.0
0.0 0.0 0.0
0.0 0.0 0.0
0.0 0.0 0.0
0.0 0.0 0.0
0.0 0.0 0.0
0.0 0.0 0.0
0.0 0.0 0.0
0.0 0.0 0.0
0.0 0.0 0.0
0.0 0.0 0.0
0.0 0.0 0.0
0.0 0.0 0.0
0.0 0.0 0.0
0.0 0.0 0.0
0.0 0.0 0.0
0.0 0.0 0.0
0.0 0.0 0.0
0.0 0.0 0.0
0.0 0.0 0.0
0.0 0.0 0.0
0.0 0.0 0.0
0.0 0.0 0.0
0.0 0.0 0.0
0.0 0.0 0.0
0.0 0.0 0.0
0.0 0.0 0.0
0.0 0.0 0.0
0.0 0.0 0.0
0.0 0.0 0.0
0.0 0.0 0.0
0.0 0.0 0.0
0.0 0.0 0.0
0.0 0.0 0.0
0.0 0.0 0.0
0.0 0.0 0.0
0.0 0.0 0.0
0.0 0.0 0.0
0.0 0.0 0.0
0.0 0.0 0.0
0.0 0.0 0.0
0.0 0.0 0.0
0.0 0.0 0.0
0.0 0.0 0.0
0.0 0.0 0.0
0.0 0.0 0.0
0.0 0.0 0.0
0.0 0.0 0.0
0.0 0.0 0.0
0.0 0.0 0.0
0.0 0.0 0.0
0.0 0.0 0.0
0.0 0.0 0.0
0.0 0.0 0.0
0.0 0.0 0.0
0.0 0.0 0.0
0.0 0.0 0.0
0.0 0.0 0.0
0.0 0.0 0.0
0.0 0.0 0.0
0.0 0.0 0.0
0.0 0.0 0.0
0.0 0.0 0.0
0.0 0.0 0.0
0.0 0.0 0.0
0.0 0.0 0.0
0.0 0.0 0.0
0.0 0.0 0.0
0.0 0.0 0.0
0.0 0.0 0.0
0.0 0.0 0.0
0.0 0.0 0.0
0.0 0.0 0.0
0.0 0.0 0.0
0.0 0.0 0.0
0.0 0.0 0.0
0.0 0.0 0.0
0.0 0.0 0.0
0.0 0.0 0.0
0.0 0.0 0.0
0.0 0.0 0.0
0.0 0.0 0.0
0.0 0.0 0.0
0.0 0.0 0.0
0.0 0.0 0.0
0.0 0.0 0.0
0.0 0.0 0.0
0.0 0.0 0.0
0.0 0.0 0.0
0.0 0.0 0.0
0.0 0.0 0.0
0.0 0.0 0.0
0.0 0.0 0.0
0.0 0.0 0.0
0.545632064756 2.18559945698e-05 0.0
0.961078900183 -8.02457818584e-05 0.0
1.25140081454 -0.000234791707983 0.0
1.44094011331 -0.000266510571401 0.0
0.279192604656 -0.000145005655435 0.0
0.758657403649 0.00115344145785 0.0
1.11100279137 -9.44078582344e-05 0.0
1.34866777742 -0.000834695354593 0.0
1.50772847092 -0.000239675643867 0.0
1.5753996934 0.0 0.0
1.57552507075 0.0 0.0
1.57579134613 0.0 0.0
1.57617020079 0.0 0.0
1.57546709999 0.0 0.0
1.57632148107 0.0 0.0
1.57627820304 0.0 0.0
1.57528619163 0.0 0.0
1.57518083834 0.0 0.0
1.57436108822 0.0 0.0
1.57252435315 0.0 0.0
1.57159258839 0.0 0.0
1.5699154162 0.0 0.0
1.56738301216 0.0 0.0
1.56448358049 0.0 0.0
1.5623648258 0.0 0.0
1.56132848886 0.0 0.0
1.55837762243 0.0 0.0
1.55614635133 0.0 0.0
1.55503224819 0.0 0.0
1.55191614469 0.0 0.0
1.54950219977 0.0 0.0
1.54818538093 0.0 0.0
1.5448255642 0.0 0.0
1.54214783185 0.0 0.0
1.5405847516 0.0 0.0
1.5369432684 0.0 0.0
1.53396404842 0.0 0.0
1.53212605746 0.0 0.0
1.52817537509 0.0 0.0
1.52486894794 0.0 0.0
1.52273659927 0.0 0.0
1.5184617211 0.0 0.0
1.51481732724 0.0 0.0
1.51237436302 0.0 0.0
1.50777563936 0.0 0.0
1.50380045695 0.0 0.0
1.50107520942 0.0 0.0
1.49585898193 0.0 0.0
1.49134827089 0.0 0.0
1.48835926414 0.0 0.0
1.48331150369 0.0 0.0
1.47857566293 0.0 0.0
1.47533101608 0.0 0.0
1.47001934195 0.0 0.0
1.46501666014 0.0 0.0
1.46152797344 0.0 0.0
1.45596573792 0.0 0.0
1.450837323 0.0 0.0
1.44710951412 0.0 0.0
1.44130783818 0.0 0.0
1.43600210807 0.0 0.0
1.43203690124 0.0 0.0
1.42900057801 0.0 0.0
1.42236713253 0.0 0.0
1.41574895717 0.0 0.0
1.41002368956 0.0 0.0
1.40527618947 0.0 0.0
1.39906621891 0.0 0.0
1.3932426293 0.0 0.0
1.38883164268 0.0 0.0
1.38231009695 0.0 0.0
1.37611265649 0.0 0.0
1.37141883403 0.0 0.0
1.36459189227 0.0 0.0
1.3581270666 0.0 0.0
1.35314314753 0.0 0.0
1.34603679912 0.0 0.0
1.33931985562 0.0 0.0
1.33380724377 0.0 0.0
1.32873719135 0.0 0.0
1.32029762819 0.0 0.0
1.31338195238 0.0 0.0
1.30570344207 0.0 0.0
1.29720273384 0.0 0.0
1.2901784195 0.0 0.0
1.28104632054 0.0 0.0
1.27216952673 0.0 0.0
1.26414524735 0.0 0.0
1.25617935711 0.0 0.0
1.2469840785 0.0 0.0
1.23824857446 0.0 0.0
1.22942708431 0.0 0.0
1.21970923487 0.0 0.0
1.21014239906 0.0 0.0
1.20028017859 0.0 0.0
1.18983814413 0.0 0.0
1.17918192343 0.0 0.0
1.16795095605 0.0 0.0
1.15635422989 0.0 0.0
1.14408335222 0.0 0.0
1.13057151174 0.0 0.0
1.11630420595 0.0 0.0
1.10061305091 0.0 0.0
1.08227180453 0.0 0.0
1.06263342633 0.0 0.0
1.04145016694 0.0 0.0
1.01898649272 0.0 0.0
1.00321347175 0.0 0.0
1.57578107199 0.0 0.0
1.57504502082 0.0 0.0
1.57642663182 0.0 0.0
1.57523982488 0.0 0.0
1.57523441775 0.0 0.0
1.57556481574 0.0 0.0
1.57695483795 0.0 0.0
1.5752489889 0.0 0.0
1.57466064468 0.0 0.0
1.5753419013 0.0 0.0
1.57281353552 0.0 0.0
1.57142564684 0.0 0.0
1.57128120123 0.0 0.0
1.56796204595 0.0 0.0
1.56593905002 0.0 0.0
1.56278101533 0.0 0.0
1.56198687039 0.0 0.0
1.5599150535 0.0 0.0
1.55656284196 0.0 0.0
1.55571123569 0.0 0.0
1.55351356623 0.0 0.0
1.54999604713 0.0 0.0
1.54895329306 0.0 0.0
1.54651685366 0.0 0.0
1.54273438739 0.0 0.0
1.54145790779 0.0 0.0
1.53874315062 0.0 0.0
1.53465543537 0.0 0.0
1.53311545004 0.0 0.0
1.53009508216 0.0 0.0
1.52567423149 0.0 0.0
1.52384927865 0.0 0.0
1.52050842683 0.0 0.0
1.51573933629 0.0 0.0
1.51361784891 0.0 0.0
1.50997071321 0.0 0.0
1.50488822881 0.0 0.0
1.50240906954 0.0 0.0
1.49833621294 0.0 0.0
1.49268374492 0.0 0.0
1.48949065055 0.0 0.0
1.48585632076 0.0 0.0
1.4800164188 0.0 0.0
1.47655937891 0.0 0.0
1.472671663 0.0 0.0
1.46656003814 0.0 0.0
1.46285467254 0.0 0.0
1.45873012165 0.0 0.0
1.45241859003 0.0 0.0
1.44855806553 0.0 0.0
1.44420368929 0.0 0.0
1.43772512899 0.0 0.0
1.43365513622 0.0 0.0
1.42930180207 0.0 0.0
1.42480116882 0.0 0.0
1.41873878654 0.0 0.0
1.41192390641 0.0 0.0
1.40728997047 0.0 0.0
1.40217421304 0.0 0.0
1.39532074627 0.0 0.0
1.3906122138 0.0 0.0
1.38557052766 0.0 0.0
1.37821862051 0.0 0.0
1.37331762167 0.0 0.0
1.36795448356 0.0 0.0
1.36038799345 0.0 0.0
1.35519091421 0.0 0.0
1.34951697484 0.0 0.0
1.34179447379 0.0 0.0
1.33616986316 0.0 0.0
1.33008097667 0.0 0.0
1.32358123885 0.0 0.0
1.31617134625 0.0 0.0
1.30886760516 0.0 0.0
1.30087233056 0.0 0.0
1.29314455435 0.0 0.0
1.28436284096 0.0 0.0
1.27616882936 0.0 0.0
1.26764218613 0.0 0.0
1.25999245678 0.0 0.0
1.25108608705 0.0 0.0
1.24215621795 0.0 0.0
1.23362256583 0.0 0.0
1.22416604469 0.0 0.0
1.21460456732 0.0 0.0
1.20498582926 0.0 0.0
1.19479384397 0.0 0.0
1.18437053999 0.0 0.0
1.17335670256 0.0 0.0
1.1620482265 0.0 0.0
1.15023898348 0.0 0.0
1.1371617517 0.0 0.0
1.12345456946 0.0 0.0
1.10856524249 0.0 0.0
1.09124601505 0.0 0.0
1.07224041022 0.0 0.0
1.05215527715 0.0 0.0
1.02977292139 0.0 0.0
1.01021021012 0.0 0.0
0.999486332879 0.0 0.0
1.0 0.0 0.0
1.0 0.0 0.0
1.0 0.0 0.0
1.0 0.0 0.0
1.0 0.0 0.0
1.0 0.0 0.0
1.0 0.0 0.0
1.0 0.0 0.0
1.0 0.0 0.0
1.17336689665 -0.0686272235585 0.0
1.22454134788 -0.0449390228746 0.0
1.22423804859 -0.03080322534 0.0
1.07006804176 2.40664944736e-06 0.0
1.1073805749 -6.23755759469e-05 0.0
1.10664474019 -0.000305943688523 0.0
1.10452847711 -0.000671832062416 0.0
1.10390880443 -0.00105515948806 0.0
1.10555275763 -0.00129936582163 0.0
1.10710318955 -0.00146503617342 0.0
1.10886258159 -0.00161055654906 0.0
1.11088580651 -0.00177871311947 0.0
1.11320951379 -0.00198092754858 0.0
1.11585361808 -0.00222055611068 0.0
1.11884191586 -0.00248235707487 0.0
1.07274539435 -0.00248286158967 0.0
1.07688463253 -0.00265660111901 0.0
1.0813645322 -0.00292241889532 0.0
1.08612371935 -0.00313395360635 0.0
1.1443487241 -0.00446045377312 0.0
1.21376418448 -0.0227512092831 0.0
1.11433799457 -0.00443885538785 0.0
1.0912704274 -0.00326730927915 0.0
1.19816914474 -0.0174213519958 0.0
1.12200551299 -0.00492846061136 0.0
1.13409612252 -0.00388532005903 0.0
1.18310261338 -0.0137833906653 0.0
1.13080831182 -0.00535566511124 0.0
1.16940754247 -0.0112138333438 0.0
1.17033260174 -0.00672675501609 0.0
1.18250807903 -0.0104878408665 0.0
1.14077616445 -0.00438265024413 0.0
1.15766436381 -0.00989023126786 0.0
0.861971407264 -0.000649570322403 0.0
1.21452512981 -0.169802824092 0.0
1.29086355562 -0.0109939355277 0.0
1.27981810968 -0.0128854032309 0.0
1.30711299827 -0.00735655336869 0.0
1.2665520619 -0.0152362004759 0.0
1.30711241049 -0.00662317247504 0.0
1.21937035736 -0.0218272978117 0.0
1.24735808427 -0.0181918493594 0.0
1.30883931787 -0.0060772854559 0.0
1.31001907378 -0.0055947647628 0.0
1.31190920332 -0.00473462883953 0.0
1.31245341087 -0.00446331312435 0.0
1.31271843717 -0.00423204799798 0.0
1.31288586347 -0.00391505840808 0.0
1.31287722275 -0.00361383041528 0.0
1.30320228824 -0.00335009367361 0.0
1.30276150665 -0.00298307428184 0.0
1.30248600395 -0.00268548248082 0.0
1.19923563214 -0.0556145030483 0.0
1.302120779 -0.00240963420103 0.0
1.3018313758 -0.00217126151209 0.0
1.30163332998 -0.00196784019548 0.0
1.17878485342 -0.0271588919552 0.0
1.30151210951 -0.00178314409102 0.0
1.12210704301 -0.0285657039768 0.0
1.13090259949 -0.0370230959522 0.0
1.29947815082 -0.00157576088328 0.0
1.29903868213 -0.00134939565744 0.0
0.8179579371 -0.000310903289255 0.0
1.29803788744 -0.000755017997731 0.0
0.81771497418 -0.000270878168581 0.0
0.951260132279 -0.00690545900029 0.0
0.971176729247 -0.00822825387618 0.0
0.909841023696 -0.00293903158527 0.0
1.06749341785 -0.018821009723 0.0
0.995561180138 -0.0104764927838 0.0
0.897534419806 -0.00333601845795 0.0
1.02662233311 -0.0139182932736 0.0
0.887302073114 -0.00311209355911 0.0
0.878195873239 -0.00274111621863 0.0
0.870186286657 -0.00206206005764 0.0
0.863548103886 -0.00230174741012 0.0
0.857325890672 -0.00215811213277 0.0
0.851498878637 -0.00198045441727 0.0
0.84618081452 -0.00180944561116 0.0
0.841445630556 -0.00156046077297 0.0
0.837118195792 -0.00144883825049 0.0
0.833334383749 -0.00129873028555 0.0
0.829923800019 -0.00116559449974 0.0
0.826863210606 -0.00106050416548 0.0
0.824103798059 -0.000974755477938 0.0
1.30199479338 -0.000257885659596 0.0
0.821626597525 -0.000890438281584 0.0
0.819459732333 -0.000797085345482 0.0
0.817832105214 -0.000521667181849 0.0
0.816852337126 -0.000295473262994 0.0
1.31956170182 -6.99031062157e-05 0.0
1.0333763652 -0.0388205432361 0.0
1.32503749203 0.000122848362029 0.0
1.31194036342 -0.00510853788037 0.0
1.30966702331 -0.00862201692225 0.0
1.30164918638 -0.00984141945827 0.0
1.32427941431 -0.00541472885894 0.0
0.813351263278 -0.00325831865146 0.0
0.854365176302 -0.00212653365484 0.0
0.870227349126 -0.00351000668176 0.0
0.879898382041 -0.00734279331293 0.0
1.15804202679 -0.0656326888474 0.0
1.00926519445 -0.0247365316626 0.0
1.32724688962 -0.000137200301828 0.0
1.37878915876 -0.00323820220335 0.0
1.37580015435 -0.00352853450399 0.0
1.13987125902 -0.0216703328374 0.0
1.36774425349 -0.00318198394415 0.0
1.07551928608 -0.0290113433678 0.0
1.37230389708 -0.00380508273613 0.0
1.36943552452 -0.00285960958493 0.0
1.37084332311 -0.00256835582613 0.0
1.36366685957 -0.00405826852025 0.0
0.919713962331 -0.0143136715452 0.0
1.37212123803 -0.00230688662605 0.0
1.36014290304 -0.00425270565899 0.0
1.37332053676 -0.00207866960598 0.0
1.3744715905 -0.00188349045489 0.0
1.18627558897 -0.0176240668935 0.0
1.37555656182 -0.0016980181476 0.0
1.36609706084 -0.00151273671 0.0
1.41534110384 -0.00115981323569 0.0
0.59197755064 0.000155966020203 0.0
1.35065134469 -0.00496356352494 0.0
1.41192697364 -0.000599361027838 0.0
0.607545744435 0.000191516867068 0.0
0.566137111731 0.000384703506553 0.0
1.41174086819 -0.000124425115226 0.0
0.590363777574 0.000148020174224 0.0
1.3466666688 -0.00527279457501 0.0
1.22225476516 -0.015075633757 0.0
0.59107202422 4.96544880587e-05 0.0
0.592530587313 2.96800665195e-06 0.0
0.594341547086 -3.87093347053e-05 0.0
0.596404076305 -6.48499617266e-05 0.0
1.34050261159 -0.00569987624499 0.0
1.25144572523 -0.0130248413269 0.0
0.598702188223 -9.91539274966e-05 0.0
0.601276564014 -0.000146042735328 0.0
0.604190779365 -0.000217395020409 0.0
0.607393035744 -0.000271912879719 0.0
0.611689460894 -0.000479939946292 0.0
1.33260305805 -0.00618304527463 0.0
1.27426734934 -0.0113160265381 0.0
0.615850119746 -0.000538461739952 0.0
0.620484001407 -0.000604211490453 0.0
0.488771840129 -0.000490576092973 0.0
0.625584423213 -0.000688985974062 0.0
0.807777119911 -0.00745533305531 0.0
0.649356894747 -0.00080980151455 0.0
0.769893773091 -0.00523544681372 0.0
0.657336354514 -0.000985418168152 0.0
0.63079450599 -0.000695985589214 0.0
0.741901948362 -0.00390510120988 0.0
0.665623662418 -0.000826224178259 0.0
0.720170910646 -0.0029585632726 0.0
0.509844131486 0.00043017853205 0.0
0.596309789188 -0.00205297007774 0.0
0.53203707426 -0.000176004518105 0.0
1.32396854852 -0.00649925403291 0.0
1.29252766208 -0.00996957105232 0.0
1.30535583369 -0.00917911107494 0.0
1.3282386225 -0.00713548641446 0.0
1.35420934161 -0.00475294003522 0.0
1.36244883964 -0.00448680979065 0.0
0.616877192577 -0.00254636450868 0.0
0.832596362368 -0.00767240003963 0.0
1.41427195601 -7.69182106627e-05 0.0
1.03255295559 -0.0555164473576 0.0
1.10279790636 -0.000150509773854 0.0
1.17164307396 -0.000179801574849 0.0
1.04176188871 -0.0211205406591 0.0
0.487953540259 -1.04872141849e-05 0.0
1.10987968374 -0.0829164434368 0.0
0.972817656295 -0.0556229122277 0.0
0.536081535418 -0.00122048706371 0.0
1.42353901054 -0.00278087943201 0.0
1.41911824881 -0.00307188884386 0.0
1.42662737257 -0.00242716214891 0.0
1.41336747861 -0.00329046285625 0.0
1.28632787111 -0.312766300166 0.0
1.40659337443 -0.00351430944094 0.0
1.43071159402 -0.00218867146667 0.0
1.39998368896 -0.0036985432334 0.0
1.43433351752 -0.00196148368846 0.0
1.43759363432 -0.00175457113732 0.0
1.19730573933 -0.0108212209026 0.0
1.37118756068 -0.00445393932599 0.0
1.10911731043 -0.0168656043776 0.0
1.36152233057 -0.00475945274284 0.0
1.23125395312 -0.00948205506832 0.0
1.44054806923 -0.00157097174575 0.0
1.35071835798 -0.00509843360544 0.0
1.25985649666 -0.00838894877861 0.0
1.15734370474 -0.0128294870469 0.0
1.28399691448 -0.00747030901066 0.0
1.44325256553 -0.00141406470265 0.0
1.44449528153 -0.00128880252173 0.0
1.44546091299 -0.00118456894505 0.0
1.44359072034 -0.000618139041498 0.0
1.44569834013 -0.000176571479156 0.0
1.44713137093 -4.17305638756e-05 0.0
1.14565163835 -0.00428836200531 0.0
0.713007119778 -0.00862461824998 0.0
0.762665810768 -0.0141241222126 0.0
0.823604668547 -0.0209701118594 0.0
0.682170066919 -0.00756964845466 0.0
0.457205673754 -0.000546662580953 0.0
0.457944679783 -0.000585471307986 0.0
0.45927560703 -0.000648397192183 0.0
1.19501407535 -0.00840133732656 0.0
0.460911650172 -0.00067205769289 0.0
0.462765971248 -0.000697070905827 0.0
0.464808339315 -0.000730626498859 0.0
1.10717594976 3.26582117692e-05 0.0
1.20009443824 -0.0106506855486 0.0
0.467067273796 -0.000772444009136 0.0
1.10720496304 -2.39009710972e-05 0.0
0.469599144888 -0.000828894266021 0.0
0.472458428144 -0.000926416089617 0.0
0.475448421424 -0.000556225794045 0.0
0.478979467098 -0.000632001878065 0.0
1.09469656517 -0.000476212205919 0.0
0.482922468624 -0.00068646995819 0.0
1.0958058296 -0.000472235832992 0.0
0.464849154418 -0.000381297805107 0.0
0.487267858477 -0.000742121295311 0.0
1.09716953773 -0.000850759849532 0.0
0.466794863067 -0.000375068658477 0.0
1.09915884549 -0.00101159732023 0.0
0.463572063322 -0.000737008246321 0.0
0.491971976906 -0.000823862534681 0.0
1.10084399916 -0.00114234336246 0.0
0.464177312588 -0.00035406299207 0.0
0.482161199147 -0.000286294436218 0.0
1.10275997586 -0.00128818773614 0.0
0.65658669165 -0.00683840739499 0.0
1.10494670639 -0.00146510718032 0.0
1.10746634691 -0.00168169388119 0.0
0.509615792738 -0.000804510319022 0.0
1.11022324832 -0.00191974207632 0.0
1.11063279325 -0.0022851657748 0.0
1.22514094738 -0.0264312608312 0.0
0.621561485823 -0.0045197178141 0.0
0.516280820201 -0.00116251153804 0.0
1.1121843249 -0.00236511074747 0.0
1.11619358674 -0.0026339519727 0.0
0.596425598629 -0.00348935667343 0.0
0.523434755524 -0.00122234680784 0.0
1.12052582021 -0.00286946755726 0.0
0.577329348472 -0.00280069431377 0.0
0.505674428012 -0.000492600881293 0.0
1.12509422261 -0.00304948794003 0.0
1.12739219933 -0.00316814342513 0.0
0.547996437511 -0.00202369423443 0.0
1.13955194433 -0.00477350852045 0.0
1.14631413418 -0.00419406061742 0.0
1.15309410736 -0.00455867837266 0.0
1.21746148275 -0.0204787936429 0.0
1.16063502441 -0.00500919955516 0.0
1.20763798179 -0.0163242816859 0.0
1.16560229454 -0.0055633976283 0.0
1.19768854144 -0.0133870164317 0.0
1.18506515024 -0.0113314322049 0.0
1.22278035961 -0.0387197452824 0.0
1.2051095673 -0.0523065766875 0.0
1.18839117657 -0.0591333828594 0.0
1.18288347585 -0.00972494967404 0.0
1.22556979552 -0.0354318705965 0.0
1.22352712793 -0.0268078965578 0.0
1.19313562228 -0.0119230701293 0.0
1.15677663976 -0.00690743664241 0.0
1.20453284524 -0.0150606202032 0.0
1.14801045613 -0.00641752243682 0.0
1.2156197835 -0.0195982285065 0.0
1.14093495009 -0.005901409325 0.0
0.573121607484 -0.00216633071507 0.0
1.14097004565 -0.00512712010919 0.0
0.592189373668 -0.00299403381168 0.0
0.532619042809 -0.00112167426258 0.0
0.658911169706 -0.00631472288033 0.0
1.12088935557 -0.00447284621513 0.0
0.613491892519 -0.00380286968134 0.0
0.530033545384 -0.00141617131363 0.0
1.11650722737 -0.00439753538009 0.0
1.11210485764 -0.00415577904883 0.0
0.641917486837 -0.00502202167981 0.0
0.523087073286 -0.0013260779381 0.0
1.10793326661 -0.00386017965161 0.0
1.44262510622 -0.000923750009482 0.0
1.10404591372 -0.00358813593189 0.0
1.11420261944 -0.00299703739958 0.0
0.493527239565 -0.000396536089435 0.0
1.11173796775 -0.00271321058132 0.0
1.10917280252 -0.002471053343 0.0
1.10687189176 -0.00225685892216 0.0
1.10487427841 -0.0020796209094 0.0
1.10314156893 -0.00193046308178 0.0
1.10163308671 -0.00178054173514 0.0
1.099664773 -0.00167641233652 0.0
1.09900934622 -0.000129169919844 0.0
1.09884021231 -0.000910789133693 0.0
1.09845975029 -0.00071374302804 0.0
1.094861279 -0.000628457563913 0.0
1.38015433374 -0.00412561494939 0.0
1.44519185133 -0.00135067902491 0.0
0.503519443263 -0.00111734293878 0.0
0.494093537035 -0.00113885025315 0.0
0.489451481802 -0.00105258681276 0.0
0.485229829025 -0.000986161220536 0.0
0.481398831409 -0.000942832874103 0.0
1.4441191879 -0.00140530117777 0.0
0.47816256099 -0.000551462835081 0.0
0.475136316199 -0.000605853945506 0.0
0.472373458056 -0.000541621617577 0.0
0.469937453419 -0.000496536950909 0.0
0.467757116424 -0.000461898953139 0.0
0.465782256712 -0.000435519157883 0.0
1.44317635961 -0.00155296908389 0.0
0.463996321844 -0.000405738463142 0.0
0.462455695917 -0.000386647989621 0.0
0.461368675859 -0.000312584281087 0.0
0.464042507061 5.01761976932e-05 0.0
1.4405075952 -0.0017051986231 0.0
1.43761347018 -0.0018834935583 0.0
1.31155623793 -0.00743671838809 0.0
1.43445502502 -0.00208705465581 0.0
1.33223738518 -0.00535804276901 0.0
0.863997733552 -0.00012504328642 0.0
1.43096884775 -0.00231373547897 0.0
1.00550154972 -0.0108274345351 0.0
1.08430713917 -0.0195886647889 0.0
1.44282655595 -0.000390413819021 0.0
1.4270652267 -0.00255768031178 0.0
1.22618920611 -0.0987832313657 0.0
1.42291718479 -0.00277918326004 0.0
1.43355436692 -0.00236481725835 0.0
1.38569221358 -0.00358882561533 0.0
1.42687109425 -0.00254238212092 0.0
1.41949608762 -0.0027355502572 0.0
1.44109434182 -0.000139029957877 0.0
1.41116796088 -0.00289572863677 0.0
1.40303121001 -0.00287093449793 0.0
1.1355093434 -0.0117982403939 0.0
1.17786450168 -0.0096638668003 0.0
1.37848636698 -0.00346175625259 0.0
1.34409156548 -0.00407096909039 0.0
1.29297041413 -0.00612900222623 0.0
1.36814003087 -0.0037097812794 0.0
1.21359399424 -0.00853495383076 0.0