# vtk DataFile Version 2.0
2D Simulation Python
ASCII
DATASET UNSTRUCTURED_GRID
FIELD FieldData 1
NODES 1 2 int
2790 1289

POINTS 2790 double
0.0 1.0 0.0
1.725 1.0 0.0
8.275 1.0 0.0
20.0 1.0 0.0
20.0 0.0 0.0
0.0 0.0 0.0
0.1916666666663293 1.0 0.0
0.3833333333324708 1.0 0.0
0.574999999998553 1.0 0.0
0.7666666666645966 1.0 0.0
0.9583333333312576 1.0 0.0
1.149999999998384 1.0 0.0
1.341666666665662 1.0 0.0
1.533333333332819 1.0 0.0
0.0958333333331406 1.0 0.0
0.2874999999994247 1.0 0.0
0.4791666666655395 1.0 0.0
0.6708333333315728 1.0 0.0
0.8624999999976626 1.0 0.0
1.054166666664886 1.0 0.0
1.245833333332057 1.0 0.0
1.437499999999343 1.0 0.0
1.629166666666455 1.0 0.0
1.92348484848444 1.0 0.0
2.121969696968978 1.0 0.0
2.320454545453434 1.0 0.0
2.518939393937826 1.0 0.0
2.717424242422235 1.0 0.0
2.915909090906411 1.0 0.0
3.1143939393908 1.0 0.0
3.312878787875129 1.0 0.0
3.511363636359531 1.0 0.0
3.709848484843827 1.0 0.0
3.90833333332816 1.0 0.0
4.106818181812215 1.0 0.0
4.305303030296804 1.0 0.0
4.503787878781365 1.0 0.0
4.702272727265711 1.0 0.0
4.900757575750005 1.0 0.0
5.099242424235156 1.0 0.0
5.297727272720327 1.0 0.0
5.496212121205663 1.0 0.0
5.694696969690998 1.0 0.0
5.89318181817668 1.0 0.0
6.09166666666213 1.0 0.0
6.290151515147423 1.0 0.0
6.488636363633031 1.0 0.0
6.687121212118713 1.0 0.0
6.885606060604342 1.0 0.0
7.084090909089381 1.0 0.0
7.282575757574369 1.0 0.0
7.481060606059355 1.0 0.0
7.679545454544343 1.0 0.0
7.878030303029329 1.0 0.0
8.076515151514705 1.0 0.0
1.824242424242199 1.0 0.0
2.022727272726695 1.0 0.0
2.221212121211181 1.0 0.0
2.41969696969563 1.0 0.0
2.618181818180092 1.0 0.0
2.816666666664316 1.0 0.0
3.015151515148624 1.0 0.0
3.213636363633039 1.0 0.0
3.412121212117267 1.0 0.0
3.610606060601583 1.0 0.0
3.809090909085975 1.0 0.0
4.007575757570153 1.0 0.0
4.206060606054539 1.0 0.0
4.404545454539001 1.0 0.0
4.603030303023853 1.0 0.0
4.801515151507715 1.0 0.0
4.999999999992074 1.0 0.0
5.198484848477777 1.0 0.0
5.396969696963081 1.0 0.0
5.595454545448261 1.0 0.0
5.793939393933949 1.0 0.0
5.992424242419331 1.0 0.0
6.190909090904785 1.0 0.0
6.389393939390224 1.0 0.0
6.587878787875795 1.0 0.0
6.786363636361617 1.0 0.0
6.984848484846598 1.0 0.0
7.183333333331875 1.0 0.0
7.381818181816625 1.0 0.0
7.580303030301849 1.0 0.0
7.778787878786936 1.0 0.0
7.977272727272114 1.0 0.0
8.175757575757618 1.0 0.0
8.473728813558951 1.0 0.0
8.672457627118133 1.0 0.0
8.871186440676855 1.0 0.0
9.069915254236154 1.0 0.0
9.268644067794812 1.0 0.0
9.467372881354057 1.0 0.0
9.666101694912944 1.0 0.0
9.864830508471961 1.0 0.0
10.06355932203108 1.0 0.0
10.26228813558986 1.0 0.0
10.46101694914916 1.0 0.0
10.65974576270777 1.0 0.0
10.85847457626706 1.0 0.0
11.05720338982589 1.0 0.0
11.25593220338497 1.0 0.0
11.45466101694402 1.0 0.0
11.65338983050287 1.0 0.0
11.85211864406215 1.0 0.0
12.05084745762035 1.0 0.0
12.24957627117938 1.0 0.0
12.44830508473794 1.0 0.0
12.64703389829659 1.0 0.0
12.84576271185557 1.0 0.0
13.04449152541379 1.0 0.0
13.24322033897301 1.0 0.0
13.44194915253121 1.0 0.0
13.6406779660903 1.0 0.0
13.83940677964874 1.0 0.0
14.03813559320751 1.0 0.0
14.23686440676681 1.0 0.0
14.43559322032663 1.0 0.0
14.63432203388679 1.0 0.0
14.8330508474463 1.0 0.0
15.0317796610067 1.0 0.0
15.23050847456608 1.0 0.0
15.42923728812645 1.0 0.0
15.62796610168606 1.0 0.0
15.82669491524602 1.0 0.0
16.02542372880584 1.0 0.0
16.22415254236431 1.0 0.0
16.42288135592496 1.0 0.0
16.62161016948498 1.0 0.0
16.82033898304518 1.0 0.0
17.01906779660567 1.0 0.0
17.2177966101654 1.0 0.0
17.41652542372565 1.0 0.0
17.61525423728425 1.0 0.0
17.81398305084494 1.0 0.0
18.01271186440355 1.0 0.0
18.21144067796387 1.0 0.0
18.41016949152309 1.0 0.0
18.6088983050827 1.0 0.0
18.80762711864282 1.0 0.0
19.00635593220153 1.0 0.0
19.20508474576211 1.0 0.0
19.40381355932072 1.0 0.0
19.60254237288117 1.0 0.0
19.80127118644013 1.0 0.0
8.374364406779554 1.0 0.0
8.573093220338519 1.0 0.0
8.771822033897509 1.0 0.0
8.970550847456504 1.0 0.0
9.169279661015429 1.0 0.0
9.368008474574502 1.0 0.0
9.566737288133496 1.0 0.0
9.765466101692677 1.0 0.0
9.964194915251602 1.0 0.0
10.16292372881015 1.0 0.0
10.36165254236967 1.0 0.0
10.56038135592849 1.0 0.0
10.75911016948728 1.0 0.0
10.95783898304648 1.0 0.0
11.15656779660554 1.0 0.0
11.35529661016447 1.0 0.0
11.55402542372345 1.0 0.0
11.75275423728253 1.0 0.0
11.95148305084111 1.0 0.0
12.15021186439983 1.0 0.0
12.34894067795883 1.0 0.0
12.54766949151722 1.0 0.0
12.74639830507616 1.0 0.0
12.94512711863486 1.0 0.0
13.14385593219357 1.0 0.0
13.34258474575207 1.0 0.0
13.54131355931069 1.0 0.0
13.7400423728695 1.0 0.0
13.93877118642822 1.0 0.0
14.13749999998697 1.0 0.0
14.33622881354686 1.0 0.0
14.53495762710678 1.0 0.0
14.73368644066656 1.0 0.0
14.93241525422655 1.0 0.0
15.13114406778625 1.0 0.0
15.32987288134641 1.0 0.0
15.52860169490635 1.0 0.0
15.7273305084661 1.0 0.0
15.9260593220261 1.0 0.0
16.12478813558534 1.0 0.0
16.32351694914468 1.0 0.0
16.52224576270527 1.0 0.0
16.72097457626511 1.0 0.0
16.91970338982543 1.0 0.0
17.11843220338561 1.0 0.0
17.31716101694539 1.0 0.0
17.51588983050497 1.0 0.0
17.71461864406449 1.0 0.0
17.91334745762401 1.0 0.0
18.11207627118383 1.0 0.0
18.31080508474307 1.0 0.0
18.50953389830311 1.0 0.0
18.70826271186271 1.0 0.0
18.90699152542239 1.0 0.0
19.10572033898203 1.0 0.0
19.30444915254171 1.0 0.0
19.50317796610107 1.0 0.0
19.70190677966065 1.0 0.0
19.90063559322003 1.0 0.0
20.0 0.7999999999999998 0.0
20.0 0.6000000000013869 0.0
20.0 0.4000000000016644 0.0
20.0 0.2000000000008322 0.0
20.0 0.9000000000000369 0.0
20.0 0.7000000000005904 0.0
20.0 0.5000000000017577 0.0
20.0 0.3000000000012483 0.0
20.0 0.1000000000004161 0.0
19.8 0.0 0.0
19.6 0.0 0.0
19.4 0.0 0.0
19.2 0.0 0.0
19.0 0.0 0.0
18.8 0.0 0.0
18.6 0.0 0.0
18.4 0.0 0.0
18.2 0.0 0.0
18.0 0.0 0.0
17.8 0.0 0.0
17.59999999999999 0.0 0.0
17.4 0.0 0.0
17.2 0.0 0.0
16.99999999999999 0.0 0.0
16.79999999999999 0.0 0.0
16.59999999999999 0.0 0.0
16.4 0.0 0.0
16.2 0.0 0.0
15.99999999999999 0.0 0.0
15.79999999999999 0.0 0.0
15.59999999999999 0.0 0.0
15.4 0.0 0.0
15.2 0.0 0.0
15.0 0.0 0.0
14.79999999999999 0.0 0.0
14.59999999999999 0.0 0.0
14.4 0.0 0.0
14.2 0.0 0.0
13.99999999999999 0.0 0.0
13.8 0.0 0.0
13.59999999999999 0.0 0.0
13.4 0.0 0.0
13.2 0.0 0.0
13.0 0.0 0.0
12.79999999999999 0.0 0.0
12.6 0.0 0.0
12.4 0.0 0.0
12.2 0.0 0.0
11.99999999999999 0.0 0.0
11.8 0.0 0.0
11.6 0.0 0.0
11.4 0.0 0.0
11.2 0.0 0.0
11.0 0.0 0.0
10.8 0.0 0.0
10.6 0.0 0.0
10.4 0.0 0.0
10.2 0.0 0.0
9.999999999999998 0.0 0.0
9.799999999999995 0.0 0.0
9.599999999999998 0.0 0.0
9.399999999999997 0.0 0.0
9.199999999999998 0.0 0.0
8.999999999999996 0.0 0.0
8.799999999999997 0.0 0.0
8.599999999999996 0.0 0.0
8.399999999999999 0.0 0.0
8.199999999999996 0.0 0.0
7.999999999999998 0.0 0.0
7.799999999999997 0.0 0.0
7.599999999999998 0.0 0.0
7.399999999999999 0.0 0.0
7.199999999999998 0.0 0.0
6.999999999999995 0.0 0.0
6.799999999999995 0.0 0.0
6.599999999999998 0.0 0.0
6.399999999999997 0.0 0.0
6.199999999999996 0.0 0.0
5.999999999999998 0.0 0.0
5.799999999999999 0.0 0.0
5.599999999999996 0.0 0.0
5.399999999999995 0.0 0.0
5.199999999999996 0.0 0.0
4.999999999999998 0.0 0.0
4.799999999999997 0.0 0.0
4.599999999999998 0.0 0.0
4.399999999999999 0.0 0.0
4.199999999999999 0.0 0.0
3.999999999999996 0.0 0.0
3.799999999999997 0.0 0.0
3.599999999999998 0.0 0.0
3.399999999999999 0.0 0.0
3.199999999999999 0.0 0.0
3.0 0.0 0.0
2.800000000000001 0.0 0.0
2.599999999999998 0.0 0.0
2.399999999999999 0.0 0.0
2.199999999999996 0.0 0.0
1.999999999999996 0.0 0.0
1.800000000000001 0.0 0.0
1.599999999999998 0.0 0.0
1.399999999999999 0.0 0.0
1.200000000000003 0.0 0.0
1.0 0.0 0.0
0.7999999999999972 0.0 0.0
0.5999999999999979 0.0 0.0
0.3999999999999986 0.0 0.0
0.1999999999999993 0.0 0.0
19.90000000000022 0.0 0.0
19.69999999999997 0.0 0.0
19.49999999999987 0.0 0.0
19.30000000000005 0.0 0.0
19.09999999999999 0.0 0.0
18.89999999999987 0.0 0.0
18.7 0.0 0.0
18.49999999999999 0.0 0.0
18.30000000000001 0.0 0.0
18.09999999999987 0.0 0.0
17.90000000000013 0.0 0.0
17.7 0.0 0.0
17.49999999999987 0.0 0.0
17.30000000000025 0.0 0.0
17.10000000000001 0.0 0.0
16.90000000000005 0.0 0.0
16.70000000000003 0.0 0.0
16.50000000000006 0.0 0.0
16.29999999999997 0.0 0.0
16.09999999999999 0.0 0.0
15.89999999999987 0.0 0.0
15.69999999999999 0.0 0.0
15.49999999999999 0.0 0.0
15.3 0.0 0.0
15.10000000000003 0.0 0.0
14.90000000000005 0.0 0.0
14.69999999999992 0.0 0.0
14.49999999999996 0.0 0.0
14.29999999999999 0.0 0.0
14.10000000000008 0.0 0.0
13.89999999999988 0.0 0.0
13.70000000000003 0.0 0.0
13.50000000000004 0.0 0.0
13.29999999999992 0.0 0.0
13.09999999999995 0.0 0.0
12.90000000000016 0.0 0.0
12.7 0.0 0.0
12.49999999999986 0.0 0.0
12.30000000000003 0.0 0.0
12.10000000000016 0.0 0.0
11.90000000000005 0.0 0.0
11.69999999999994 0.0 0.0
11.49999999999993 0.0 0.0
11.30000000000005 0.0 0.0
11.0999999999999 0.0 0.0
10.90000000000004 0.0 0.0
10.69999999999995 0.0 0.0
10.50000000000012 0.0 0.0
10.29999999999999 0.0 0.0
10.09999999999993 0.0 0.0
9.900000000000077 0.0 0.0
9.699999999999969 0.0 0.0
9.499999999999982 0.0 0.0
9.299999999999969 0.0 0.0
9.100000000000108 0.0 0.0
8.899999999999972 0.0 0.0
8.699999999999958 0.0 0.0
8.499999999999998 0.0 0.0
8.30000000000003 0.0 0.0
8.099999999999977 0.0 0.0
7.899999999999974 0.0 0.0
7.700000000000166 0.0 0.0
7.499999999999854 0.0 0.0
7.299999999999997 0.0 0.0
7.100000000000019 0.0 0.0
6.900000000000002 0.0 0.0
6.699999999999974 0.0 0.0
6.500000000000037 0.0 0.0
6.299999999999981 0.0 0.0
6.100000000000014 0.0 0.0
5.899999999999949 0.0 0.0
5.700000000000049 0.0 0.0
5.499999999999956 0.0 0.0
5.300000000000118 0.0 0.0
5.100000000000005 0.0 0.0
4.900000000000109 0.0 0.0
4.699999999999982 0.0 0.0
4.499999999999936 0.0 0.0
4.300000000000137 0.0 0.0
4.100000000000012 0.0 0.0
3.899999999999888 0.0 0.0
3.69999999999974 0.0 0.0
3.500000000000046 0.0 0.0
3.299999999999965 0.0 0.0
3.099999999999817 0.0 0.0
2.900000000000066 0.0 0.0
2.699999999999793 0.0 0.0
2.500000000000064 0.0 0.0
2.299999999999823 0.0 0.0
[...]
POINT_DATA 2790
VECTORS vector double
1.0 0.0 0.0
0.0 0.0 0.0
0.0 0.0 0.0
0.0 0.0 0.0
1.10303135854 0.0 0.0
1.0 0.0 0.0
0.0 0.0 0.0
0.0 0.0 0.0
0.0 0.0 0.0
0.0 0.0 0.0
0.0 0.0 0.0
0.0 0.0 0.0
0.0 0.0 0.0
0.0 0.0 0.0
0.0 0.0 0.0
0.0 0.0 0.0
0.0 0.0 0.0
0.0 0.0 0.0
0.0 0.0 0.0
0.0 0.0 0.0
0.0 0.0 0.0
0.0 0.0 0.0
0.0 0.0 0.0
0.0 0.0 0.0
0.0 0.0 0.0
0.0 0.0 0.0
0.0 0.0 0.0
0.0 0.0 0.0
0.0 0.0 0.0
0.0 0.0 0.0
0.0 0.0 0.0
0.0 0.0 0.0
0.0 0.0 0.0
0.0 0.0 0.0
0.0 0.0 0.0
0.0 0.0 0.0
0.0 0.0 0.0
0.0 0.0 0.0
0.0 0.0 0.0
0.0 0.0 0.0
0.0 0.0 0.0
0.0 0.0 0.0
0.0 0.0 0.0
0.0 0.0 0.0
0.0 0.0 0.0
0.0 0.0 0.0
0.0 0.0 0.0
0.0 0.0 0.0
0.0 0.0 0.0
0.0 0.0 0.0
0.0 0.0 0.0
0.0 0.0 0.0
0.0 0.0 0.0
0.0 0.0 0.0
0.0 0.0 0.0
0.0 0.0 0.0
0.0 0.0 0.0
0.0 0.0 0.0
0.0 0.0 0.0
0.0 0.0 0.0
0.0 0.0 0.0
0.0 0.0 0.0
0.0 0.0 0.0
0.0 0.0 0.0
0.0 0.0 0.0
0.0 0.0 0.0
0.0 0.0 0.0
0.0 0.0 0.0
0.0 0.0 0.0
0.0 0.0 0.0
0.0 0.0 0.0
0.0 0.0 0.0
0.0 0.0 0.0
0.0 0.0 0.0
0.0 0.0 0.0
0.0 0.0 0.0
0.0 0.0 0.0
0.0 0.0 0.0
0.0 0.0 0.0
0.0 0.0 0.0
0.0 0.0 0.0
0.0 0.0 0.0
0.0 0.0 0.0
0.0 0.0 0.0
0.0 0.0 0.0
0.0 0.0 0.0
0.0 0.0 0.0
0.0 0.0 0.0
0.0 0.0 0.0
0.0 0.0 0.0
0.0 0.0 0.0
0.0 0.0 0.0
0.0 0.0 0.0
0.0 0.0 0.0
0.0 0.0 0.0
0.0 0.0 0.0
0.0 0.0 0.0
0.0 0.0 0.0
0.0 0.0 0.0
0.0 0.0 0.0
0.0 0.0 0.0
0.0 0.0 0.0
0.0 0.0 0.0
0.0 0.0 0.0
0.0 0.0 0.0
0.0 0.0 0.0
0.0 0.0 0.0
0.0 0.0 0.0
0.0 0.0 0.0
0.0 0.0 0.0
0.0 0.0 0.0
0.0 0.0 0.0
0.0 0.0 0.0
0.0 0.0 0.0
0.0 0.0 0.0
0.0 0.0 0.0
0.0 0.0 0.0
0.0 0.0 0.0
0.0 0.0 0.0
0.0 0.0 0.0
0.0 0.0 0.0
0.0 0.0 0.0
0.0 0.0 0.0
0.0 0.0 0.0
0.0 0.0 0.0
0.0 0.0 0.0
0.0 0.0 0.0
0.0 0.0 0.0
0.0 0.0 0.0
0.0 0.0 0.0
0.0 0.0 0.0
0.0 0.0 0.0
0.0 0.0 0.0
0.0 0.0 0.0
0.0 0.0 0.0
0.0 0.0 0.0
0.0 0.0 0.0
0.0 0.0 0.0
0.0 0.0 0.0
0.0 0.0 0.0
0.0 0.0 0.0
0.0 0.0 0.0
0.0 0.0 0.0
0.0 0.0 0.0
0.0 0.0 0.0
0.0 0.0 0.0
0.0 0.0 0.0
0.0 0.0 0.0
0.0 0.0 0.0
0.0 0.0 0.0
0.0 0.0 0.0
0.0 0.0 0.0
0.0 0.0 0.0
0.0 0.0 0.0
0.0 0.0 0.0
0.0 0.0 0.0
0.0 0.0 0.0
0.0 0.0 0.0
0.0 0.0 0.0
0.0 0.0 0.0
0.0 0.0 0.0
0.0 0.0 0.0
0.0 0.0 0.0
0.0 0.0 0.0
0.0 0.0 0.0
0.0 0.0 0.0
0.0 0.0 0.0
0.0 0.0 0.0
0.0 0.0 0.0
0.0 0.0 0.0
0.0 0.0 0.0
0.0 0.0 0.0
0.0 0.0 0.0
0.0 0.0 0.0
0.0 0.0 0.0
0.0 0.0 0.0
0.0 0.0 0.0
0.0 0.0 0.0
0.0 0.0 0.0
0.0 0.0 0.0
0.0 0.0 0.0
0.0 0.0 0.0
0.0 0.0 0.0
0.0 0.0 0.0
0.0 0.0 0.0
0.0 0.0 0.0
0.0 0.0 0.0
0.0 0.0 0.0
0.0 0.0 0.0
0.0 0.0 0.0
0.0 0.0 0.0
0.0 0.0 0.0
0.0 0.0 0.0
0.0 0.0 0.0
0.0 0.0 0.0
0.0 0.0 0.0
0.0 0.0 0.0
0.0 0.0 0.0
0.0 0.0 0.0
0.0 0.0 0.0
0.0 0.0 0.0
0.0 0.0 0.0
0.0 0.0 0.0
0.0 0.0 0.0
0.0 0.0 0.0
1.06419429177 -0.00638397498423 0.0
1.12898634161 -0.00288636460032 0.0
1.10935007029 0.000652970874437 0.0
1.10458196662 0.000186678080724 0.0
0.581104980339 -0.00587463641026 0.0
1.11373898848 0.00628164420403 0.0
1.11340493814 -0.000345739230808 0.0
1.10633464998 0.000205998208618 0.0
1.1038903981 0.000283405735125 0.0
1.10192097101 0.0 0.0
1.0992098845 0.0 0.0
1.09598638199 0.0 0.0
1.09329288868 0.0 0.0
1.09115527047 0.0 0.0
1.09011460871 0.0 0.0
1.08930055066 0.0 0.0
1.08839509716 0.0 0.0
1.08769152263 0.0 0.0
1.0872893365 0.0 0.0
1.08700573306 0.0 0.0
1.08693271645 0.0 0.0
1.0870054832 0.0 0.0
1.08696165526 0.0 0.0
1.08657922529 0.0 0.0
1.08667265758 0.0 0.0
1.08699580914 0.0 0.0
1.08660758818 0.0 0.0
1.08666501984 0.0 0.0
1.08701631378 0.0 0.0
1.08661801295 0.0 0.0
1.0866837704 0.0 0.0
1.08703418578 0.0 0.0
1.08663523736 0.0 0.0
1.08669886016 0.0 0.0
1.08704653292 0.0 0.0
1.08664770946 0.0 0.0
1.08670772283 0.0 0.0
1.08704913562 0.0 0.0
1.08664489779 0.0 0.0
1.0866943034 0.0 0.0
1.08703163968 0.0 0.0
1.08663603071 0.0 0.0
1.08668654407 0.0 0.0
1.08701335442 0.0 0.0
1.08660984901 0.0 0.0
1.08665320297 0.0 0.0
1.08701047053 0.0 0.0
1.08656462097 0.0 0.0
1.08635249426 0.0 0.0
1.08691713949 0.0 0.0
1.08659660038 0.0 0.0
1.08638125109 0.0 0.0
1.08696672659 0.0 0.0
1.086704029 0.0 0.0
1.08659954345 0.0 0.0
1.08739090498 0.0 0.0
1.08751667722 0.0 0.0
1.08812949376 0.0 0.0
1.08999589006 0.0 0.0
1.0915212693 0.0 0.0
1.09374239085 0.0 0.0
1.09738193595 0.0 0.0
1.10162533816 0.0 0.0
1.10405154179 0.0 0.0
1.10370381683 0.0 0.0
1.10125892358 0.0 0.0
1.09795297123 0.0 0.0
1.09417665841 0.0 0.0
1.09139359279 0.0 0.0
1.09004501577 0.0 0.0
1.0887637942 0.0 0.0
1.08790089638 0.0 0.0
1.08829500772 0.0 0.0
1.08845355188 0.0 0.0
1.0893333652 0.0 0.0
1.09196758662 0.0 0.0
1.09468851388 0.0 0.0
1.09872990856 0.0 0.0
1.10512934399 0.0 0.0
1.11207927262 0.0 0.0
1.11589554632 0.0 0.0
1.11565265422 0.0 0.0
1.1114634626 0.0 0.0
1.10558282281 0.0 0.0
1.10016125979 0.0 0.0
1.09529602708 0.0 0.0
1.09199840186 0.0 0.0
1.09054500789 0.0 0.0
1.08965676297 0.0 0.0
1.08842377125 0.0 0.0
1.08844630994 0.0 0.0
1.08874333765 0.0 0.0
1.08854865566 0.0 0.0
1.0897713165 0.0 0.0
1.09171832808 0.0 0.0
1.09342094336 0.0 0.0
1.09617440934 0.0 0.0
1.09846098307 0.0 0.0
1.09939725982 0.0 0.0
1.10035390369 0.0 0.0
1.10038391445 0.0 0.0
1.09872561072 0.0 0.0
1.09694659044 0.0 0.0
1.09497240301 0.0 0.0
1.08218879263 0.0 0.0
1.04737791331 0.0 0.0
1.0174933006 0.0 0.0
1.00239546808 0.0 0.0
1.10318864348 0.0 0.0
1.10099054856 0.0 0.0
1.09809640043 0.0 0.0
1.09480028886 0.0 0.0
1.09246143794 0.0 0.0
1.09095167246 0.0 0.0
1.08991341052 0.0 0.0
1.08896659071 0.0 0.0
1.08813942171 0.0 0.0
1.08758262108 0.0 0.0
1.0872472902 0.0 0.0
1.08706664991 0.0 0.0
1.08710815513 0.0 0.0
1.08715352214 0.0 0.0
1.08729196511 0.0 0.0
1.08709288942 0.0 0.0
1.08739552254 0.0 0.0
1.08737486006 0.0 0.0
1.08710994185 0.0 0.0
1.08743982307 0.0 0.0
1.08740427305 0.0 0.0
1.08713487252 0.0 0.0
1.08745866782 0.0 0.0
1.08741827005 0.0 0.0
1.08714996377 0.0 0.0
1.08746931096 0.0 0.0
1.08742692312 0.0 0.0
1.08715954752 0.0 0.0
1.08747168826 0.0 0.0
1.08742282929 0.0 0.0
1.08715035003 0.0 0.0
1.08745347989 0.0 0.0
1.08740648232 0.0 0.0
1.08713946396 0.0 0.0
1.08743560696 0.0 0.0
1.08736433928 0.0 0.0
1.08710531929 0.0 0.0
1.08739182054 0.0 0.0
1.08740204564 0.0 0.0
1.08710260428 0.0 0.0
1.08738544664 0.0 0.0
1.08746700889 0.0 0.0
1.08713118929 0.0 0.0
1.08741156983 0.0 0.0
1.08753397183 0.0 0.0
1.0872850254 0.0 0.0
1.0877095981 0.0 0.0
1.08812733734 0.0 0.0
1.08844278629 0.0 0.0
1.08977156646 0.0 0.0
1.09145626612 0.0 0.0
1.09327444033 0.0 0.0
1.09649620215 0.0 0.0
1.09999284629 0.0 0.0
1.10295125686 0.0 0.0
1.10450513559 0.0 0.0
1.10309603493 0.0 0.0
1.10018748929 0.0 0.0
1.09663716291 0.0 0.0
1.09330078358 0.0 0.0
1.09133402714 0.0 0.0
1.09002946094 0.0 0.0
1.08891076695 0.0 0.0
1.08879037592 0.0 0.0
1.08901899578 0.0 0.0
1.08949604294 0.0 0.0
1.09136646386 0.0 0.0
1.09399769645 0.0 0.0
1.09738492991 0.0 0.0
1.10300455946 0.0 0.0
1.1092972679 0.0 0.0
1.11422023655 0.0 0.0
1.11620621411 0.0 0.0
1.11395525247 0.0 0.0
1.10883234525 0.0 0.0
1.10307358035 0.0 0.0
1.09788764217 0.0 0.0
1.09445551224 0.0 0.0
1.09186589423 0.0 0.0
1.09071033223 0.0 0.0
1.08972705902 0.0 0.0
1.08902310285 0.0 0.0
1.08923377779 0.0 0.0
1.08937471848 0.0 0.0
1.08976648975 0.0 0.0
1.09141383045 0.0 0.0
1.09329358521 0.0 0.0
1.09540648948 0.0 0.0
1.09796720086 0.0 0.0
1.09957908522 0.0 0.0
1.1004945097 0.0 0.0
1.10094821575 0.0 0.0
1.10010759676 0.0 0.0
1.09802415218 0.0 0.0
1.09561686075 0.0 0.0
1.08974449012 0.0 0.0
1.06597139476 0.0 0.0
1.03090091717 0.0 0.0
1.00893101715 0.0 0.0
0.999384045488 0.0 0.0
1.0 0.0 0.0
1.0 0.0 0.0
1.0 0.0 0.0
1.0 0.0 0.0
1.0 0.0 0.0
1.0 0.0 0.0
1.0 0.0 0.0
1.0 0.0 0.0
1.0 0.0 0.0
1.14526877087 -0.0522220478853 0.0
1.11081998512 -0.0043985956884 0.0
1.10779873948 0.00107661706446 0.0
1.09394413141 -0.00948696078995 0.0
1.09235167482 -0.00114649588549 0.0
1.08868323168 -0.000455850559984 0.0
1.08937163191 0.000816208100802 0.0
1.08979275327 0.000771395671075 0.0
1.08975340284 0.000734854350706 0.0
1.08978254958 0.000711862299441 0.0
1.08980410947 0.000696635092728 0.0
1.08982249294 0.000680149496555 0.0
1.08985494016 0.000644183907304 0.0
1.08991718877 0.000650820130095 0.0
1.08988993076 0.000554531323988 0.0
1.09136170627 -0.000223065554606 0.0
1.09123447227 -0.000264570025527 0.0
1.0911656313 -0.000166528694738 0.0
1.09045387756 0.000851398771902 0.0
1.09292898574 -0.00815590306461 0.0
1.10530650746 0.0082736974945 0.0
1.09171648882 -0.00194924024136 0.0
1.0945295873 0.0046822014985 0.0
1.09044997784 0.00228130836648 0.0
1.0900052595 0.00101400372631 0.0
1.1110784881 0.0169945206383 0.0
1.09131869565 -0.000606513503236 0.0
1.09530549566 0.0066203222226 0.0
1.09197201654 -0.00331133969938 0.0
1.13008412681 0.030424938246 0.0
1.09621173263 -0.0147224727076 0.0
1.11394766244 -0.0137540086697 0.0
1.13244552843 -0.0244127791328 0.0
1.1339440447 -0.0176042087705 0.0
1.21679081593 -0.163813147177 0.0
1.09276942256 -0.00471588612328 0.0
1.08953324087 -0.00102706793664 0.0
1.10042079531 0.0120000922328 0.0
1.08908145189 0.000449370583984 0.0
1.09031823665 0.00344216699573 0.0
1.10126798759 0.00239018732377 0.0
1.0929927985 0.00465652283777 0.0
1.08855392571 -0.000412185328623 0.0
1.09043916173 -0.00266371847729 0.0
1.09567976253 0.00669086763001 0.0
1.08958075826 0.00230714446463 0.0
1.08798406282 0.000291637630525 0.0
1.08788082114 5.27054436098e-06 0.0
1.08786914414 -2.36332743288e-05 0.0
1.08797720878 -4.32874554005e-06 0.0
1.08779342935 -0.000293544987007 0.0
1.08779617961 -0.00025413910644 0.0
1.1452576454 0.0061471539881 0.0
1.08781011799 -0.000270728347666 0.0
1.0878034337 -0.000265090111728 0.0
1.0877917015 -0.000265665344705 0.0
1.10237274386 -0.00164354405741 0.0
1.08777650954 -0.000262923624006 0.0
1.12178540492 -0.00135552577155 0.0
1.097408303 -0.0157983327511 0.0
1.08774793126 -0.000260144601315 0.0
1.08769831468 -0.000202621977355 0.0
1.10630299426 0.00230886178206 0.0
1.08749016629 -0.000403281596812 0.0
1.10634333531 -0.000656937166157 0.0
1.10579376372 -0.00255709090431 0.0
1.10592459838 0.00187864040385 0.0
1.10177410141 0.0275204795439 0.0
1.11895654862 0.00437854325824 0.0
1.10577857149 0.00338264751282 0.0
1.10109761616 0.010368641897 0.0
1.10340199361 0.0153869684392 0.0
1.10610147429 0.00255508365672 0.0
1.10751462334 0.000317969818516 0.0
1.1035017282 0.0151462597445 0.0
1.10302580614 0.00779866503597 0.0
1.10805683554 0.00381718742477 0.0
1.10845107998 0.00363075273002 0.0
1.1085192434 0.00362543737292 0.0
1.10831052404 0.00345345915553 0.0
1.10931724411 0.003727568915 0.0
1.10923633868 0.00380355797388 0.0
1.10922236315 0.00379973328069 0.0
1.10923866728 0.00380857831639 0.0
1.10925873205 0.00381478222237 0.0
1.08900139525 -0.00186901929666 0.0
1.10927906384 0.00382268130275 0.0
1.10931461768 0.00382671926321 0.0
1.10932605541 0.00390927160214 0.0
1.10861075299 0.0044133319527 0.0
1.09105549402 -0.00252803582018 0.0
1.03351159658 -0.0392832988666 0.0
1.10323263583 -0.00615770956996 0.0
1.11057995583 0.0010310827394 0.0
1.12397957896 0.00228747919491 0.0
1.10651384728 -0.0110418553088 0.0
1.09884656612 -0.00717874611062 0.0
1.10681247134 -0.0259042805813 0.0
1.14237164684 0.00458700984715 0.0
1.15795760113 0.00414595335052 0.0
1.11768202563 -0.0397327597078 0.0
1.16284928347 -0.0174339482731 0.0
1.09767793512 0.00113823033424 0.0
1.09491156035 -0.00541000472235 0.0
1.08741662039 6.2532868718e-05 0.0
1.0874623259 5.35569890701e-05 0.0
1.09980928535 -0.00355859796049 0.0
1.08760049212 0.000101994347676 0.0
1.07145133122 -0.0340874098368 0.0
1.08754720026 0.000167500372377 0.0
1.087676743 0.000133673051226 0.0
1.08767906431 0.000136405183038 0.0
1.08838099706 0.00115075089315 0.0
1.09079020557 0.0018295469679 0.0
1.08768724445 0.000156991653828 0.0
1.0928155826 0.00337712778526 0.0
1.08767617773 0.000162820469709 0.0
1.08766076494 0.000167192142746 0.0
1.10148182295 0.000830449844482 0.0
1.08764092583 0.000177937112216 0.0
1.08755137374 0.000202086940642 0.0
1.0874744553 0.000129616650184 0.0
1.10358802409 -0.0195195238351 0.0
1.09241491628 -0.00341392146599 0.0
1.08780715869 -0.000445381010483 0.0
1.10841317066 -0.00487331778488 0.0
1.08915424936 -0.00439061404399 0.0
1.09020014618 -0.000934640337596 0.0
1.10584157979 -0.00338682688478 0.0
1.08891464916 -0.000743374675896 0.0
1.09647349292 0.0034256566612 0.0
1.10566983051 -0.00360413650174 0.0
1.1054487608 -0.00361570796085 0.0
1.10524976209 -0.0036139748449 0.0
1.10506067035 -0.00360462540967 0.0
1.08882528731 0.00134469689821 0.0
1.08947559104 0.00130582086644 0.0
1.10488384492 -0.00359421911193 0.0
1.10472589663 -0.00358384926041 0.0
1.10454464234 -0.00354111363386 0.0
1.10451177867 -0.0037295708486 0.0
1.10589450741 -0.00264721704208 0.0
1.09539555645 0.00551650257095 0.0
1.08895488514 -0.000275524853393 0.0
1.1056156347 -0.00267063953977 0.0
1.10536693132 -0.00264854963866 0.0
0.969596127677 -0.00869640977907 0.0
1.10407241097 -0.00305790840264 0.0
1.08667256769 0.0139097217495 0.0
1.09874795778 -0.00450763955551 0.0
1.09766313497 -0.00206818375383 0.0
1.09856590078 -0.00300505699501 0.0
1.09154035128 0.00329526319584 0.0
1.0984834461 -0.0033722344661 0.0
1.08610493274 0.00477235320422 0.0
1.09737811044 -0.006148561143 0.0
0.878704069479 0.0513241974606 0.0
1.01821302708 -0.0181292372841 0.0
0.989252544121 0.0338623904183 0.0
1.11560077798 -0.00432775461728 0.0
1.09099679998 -0.00214103076878 0.0
1.09778529604 -0.00632821655994 0.0
1.11277368489 0.00970907706538 0.0
1.10383333137 -0.00485273226967 0.0
1.10224804107 0.0054803944304 0.0
1.07019094505 -0.0382194762215 0.0
1.16836875367 -0.0569027172063 0.0
1.09300745045 -0.00277647227887 0.0
1.0341672956 -0.0558048812252 0.0
1.11519772032 -0.00945663523197 0.0
1.10139524186 -0.0104869449441 0.0
1.04268568479 -0.0258664674072 0.0
0.995382755673 -0.0124548308415 0.0
1.10759121107 -0.0809554291512 0.0
0.986734393905 -0.042478619371 0.0
1.04136151743 -0.0293438228419 0.0
1.08721906325 2.49633260556e-05 0.0
1.08725438046 -4.9198161793e-06 0.0
1.08718974211 -4.59878736147e-05 0.0
1.08731449846 4.07266407158e-05 0.0
1.28767412357 -0.312886647604 0.0
1.08780916188 0.000409875457614 0.0
1.087231765 -1.99957199227e-05 0.0
1.09098299584 0.00172662317488 0.0
1.08724524584 -2.79607841366e-05 0.0
1.0872459159 -2.07942752323e-05 0.0
1.098152277 0.00191853869959 0.0
1.08952116784 -0.000906865140546 0.0
1.09426412232 -0.00403467207498 0.0
1.08846061255 0.000371315161831 0.0
1.09080685486 0.0016002431798 0.0
1.08723479442 -1.9572463667e-05 0.0
1.09305503394 0.00278529035598 0.0
1.08887006116 3.41081994615e-05 0.0
1.10120806612 -0.000133790230928 0.0
1.09017610547 -0.00102063109826 0.0
1.08721961073 -1.79145561459e-05 0.0
1.08719491098 -1.68400514245e-05 0.0
1.08716929698 1.44328271037e-05 0.0
1.08722240291 -0.000121395094062 0.0
1.08823777656 -0.000768016690515 0.0
1.09071588407 -0.00113459330928 0.0
1.12252940631 -0.00419867021237 0.0
0.947320994547 -0.00162007696958 0.0
0.942833982039 0.00584303551984 0.0
0.93327171108 0.0184446823496 0.0
0.942708964221 -0.000650954279856 0.0
0.988121205698 0.00669629593221 0.0
0.987780604063 0.00637024516329 0.0
0.987650022072 0.00631138554552 0.0
1.14608001664 0.00637242947054 0.0
0.987572534726 0.00629820340544 0.0
0.987520378548 0.00628452335939 0.0
0.987493457972 0.00627055277369 0.0
1.09096888856 -0.00179419691847 0.0
1.10623922162 -0.0192109923199 0.0
0.987492099257 0.00625792654458 0.0
1.09257163284 -0.000420610655301 0.0
0.987509672108 0.00625416500714 0.0
0.987505066452 0.00619183489631 0.0
0.98780390316 0.00599202708944 0.0
0.987661446251 0.00595777954834 0.0
1.09095814056 0.00070981506005 0.0
0.987703198721 0.00594473211079 0.0
1.09134167994 0.000699864120174 0.0
0.988886212323 0.00533149975881 0.0
0.987418594448 0.00584260160717 0.0
1.09134112143 0.000629117334993 0.0
1.00030401356 -0.00989904681917 0.0
1.09134713758 0.000620245934261 0.0
0.99409841092 0.00308739236069 0.0
0.982871961649 0.00839530747554 0.0
1.09136623302 0.000616101994433 0.0
0.996817552777 -0.00888966793026 0.0
0.958283130107 0.0205179138509 0.0
1.09138223637 0.000612774675121 0.0
0.958792993376 -0.00100409303161 0.0
1.09140036575 0.000603726269725 0.0
1.09143730237 0.000639343152204 0.0
0.981917919367 0.0035505379295 0.0
1.09145518175 0.000505186772999 0.0
1.09142279329 0.00071939940854 0.0
1.10544517138 0.00331139486417 0.0
0.987199101155 -0.000188891436299 0.0
0.985023079023 0.0043318702664 0.0
1.0911490092 0.00078150794688 0.0
1.09112350345 0.000827183669537 0.0
0.991266531704 -0.00471497188644 0.0
0.978589961799 0.0103698897563 0.0
1.09094200831 0.00127293852541 0.0
0.990357099411 -0.00601175664708 0.0
0.931652877217 0.0318597535666 0.0
1.09240693559 0.00526738123671 0.0
1.09837777239 0.0140942709499 0.0
0.973922773783 -0.00425268394264 0.0
1.10011162218 -0.0138002392821 0.0
1.09203769683 -0.00172357385584 0.0
1.09070848397 0.000572289310273 0.0
1.09123954389 0.00581778315305 0.0
1.09324151472 0.00728520941397 0.0
1.09042169764 -0.000381821365912 0.0
1.10352650143 0.0267743186273 0.0
1.09087861856 -0.0022187152488 0.0
1.09247659383 -0.00790106008652 0.0
1.1075174523 -0.00135662747115 0.0
1.11525476038 -0.00964297683811 0.0
1.12741711284 -0.0205825800327 0.0
1.09300500568 -0.00398318589775 0.0
1.1067704939 -0.00163139415763 0.0
1.10635347693 0.00372752633094 0.0
1.09188957831 -0.000206191715622 0.0
1.09406317817 0.0125439810863 0.0
1.09138490121 0.00148806351903 0.0
1.08959344977 0.00379715279677 0.0
1.09753604426 0.0105286921197 0.0
1.09034630628 -0.0016285469102 0.0
0.985146342085 0.00259752022727 0.0
1.09129793697 -0.00430911534469 0.0
0.9919027771 0.00509654574557 0.0
0.978878393898 0.0032401660801 0.0
0.94976223421 0.000998921895667 0.0
1.09394069951 0.00656613042021 0.0
0.992102473253 0.00594143614342 0.0
0.99982217332 -0.00395344638865 0.0
1.08977444729 0.00240870451707 0.0
1.09020889639 -0.00025128139717 0.0
0.980260875333 0.0190604628895 0.0
1.00042389802 -0.0060997131001 0.0
1.09031202565 -0.000481329879752 0.0
1.08741558369 -0.000216081912744 0.0
1.09033762814 -0.000501589702429 0.0
1.09046532519 -0.00065623624034 0.0
0.977787860035 0.000589738079288 0.0
1.09036925729 -0.00110281889956 0.0
1.09029727145 -0.0010785724906 0.0
1.09026339038 -0.00107488436619 0.0
1.09025223079 -0.00107559095708 0.0
1.09023977599 -0.00108115997508 0.0
1.09022537429 -0.00108162447545 0.0
1.09024076467 -0.00109586022621 0.0
1.09177187744 -0.00379477035682 0.0
1.09018405018 -0.00101283835367 0.0
1.08959298483 -0.00130137024047 0.0
1.09100014769 -0.00482940133837 0.0
1.0957878411 -0.00325016539289 0.0
1.08731568962 6.56861104345e-06 0.0
0.988953475195 -0.000285834555849 0.0
0.997871007142 -0.00605350808692 0.0
0.998851117629 -0.005678313203 0.0
0.998941180032 -0.00566806071686 0.0
0.998924780076 -0.00568785756794 0.0
1.08732546194 -1.34279042233e-05 0.0
0.999392029489 -0.00565784155163 0.0
0.999090933937 -0.00530774485406 0.0
0.999154580974 -0.00535482185525 0.0
0.999160376928 -0.0053635153043 0.0
0.99919662306 -0.00537177165201 0.0
0.999257960918 -0.00538151485746 0.0
1.08735002044 -2.10530434749e-05 0.0
0.999344215876 -0.00538734914674 0.0
0.999460482282 -0.0053983296724 0.0
0.999639052261 -0.00532382944051 0.0
1.00470773669 -0.00217625116985 0.0
1.08736697434 -2.69177842882e-05 0.0
1.08737965919 -2.91702918418e-05 0.0
1.10327628781 -0.00577037311993 0.0
1.08738587603 -3.427252153e-05 0.0
1.11739098692 0.0036578543374 0.0
1.12203602755 -0.0203285052716 0.0
1.08736322595 -3.86575945468e-05 0.0
1.00517164854 -0.00997106990662 0.0
1.08084854284 -0.0146343968868 0.0
1.08917551107 -0.000900386291633 0.0
1.08734688152 -5.13980530461e-05 0.0
1.21623358035 -0.0799918652426 0.0
1.08729464145 1.64313786268e-05 0.0
1.08725872685 -1.04719872709e-05 0.0
1.10527202514 0.00218621505219 0.0
1.08729432226 1.07470973655e-05 0.0
1.08752393634 0.000137353417045 0.0
1.10363791692 -0.00202857736961 0.0
1.08929390885 0.000986189761907 0.0
1.09556601333 0.00271220749838 0.0
1.10024343141 -0.00106925655943 0.0
1.09997056207 0.00103684864842 0.0
1.09110758585 -0.00145075350878 0.0
1.10077859613 0.00471937090822 0.0
1.0932003333 -0.00203980995442 0.0
1.08854751264 -0.000203450585065 0.0
1.09350551384 0.00195576072575 0.0
1.08734111011 2.30420940756e-05 0.0
1.08734976037 4.16343513879e-05 0.0
1.10026328686 -0.00300112697669 0.0
1.08733215551 3.86182428671e-05 0.0
1.08729360629 -3.89813772278e-05 0.0
1.09047646907 0.00149036034106 0.0