# vtk DataFile Version 2.0
2D Simulation Python
ASCII
DATASET UNSTRUCTURED_GRID
FIELD FieldData 1
NODES 1 2 int
2790 1289

POINTS 2790 double
0.0 1.0 0.0
1.725 1.0 0.0
8.275 1.0 0.0
20.0 1.0 0.0
20.0 0.0 0.0
0.0 0.0 0.0
0.1916666666663293 1.0 0.0
0.3833333333324708 1.0 0.0
0.574999999998553 1.0 0.0
0.7666666666645966 1.0 0.0
0.9583333333312576 1.0 0.0
1.149999999998384 1.0 0.0
1.341666666665662 1.0 0.0
1.533333333332819 1.0 0.0
0.0958333333331406 1.0 0.0
0.2874999999994247 1.0 0.0
0.4791666666655395 1.0 0.0
0.6708333333315728 1.0 0.0
0.8624999999976626 1.0 0.0
1.054166666664886 1.0 0.0
1.245833333332057 1.0 0.0
1.437499999999343 1.0 0.0
1.629166666666455 1.0 0.0
1.92348484848444 1.0 0.0
2.121969696968978 1.0 0.0
2.320454545453434 1.0 0.0
2.518939393937826 1.0 0.0
2.717424242422235 1.0 0.0
2.915909090906411 1.0 0.0
3.1143939393908 1.0 0.0
3.312878787875129 1.0 0.0
3.511363636359531 1.0 0.0
3.709848484843827 1.0 0.0
3.90833333332816 1.0 0.0
4.106818181812215 1.0 0.0
4.305303030296804 1.0 0.0
4.503787878781365 1.0 0.0
4.702272727265711 1.0 0.0
4.900757575750005 1.0 0.0
5.099242424235156 1.0 0.0
5.297727272720327 1.0 0.0
5.496212121205663 1.0 0.0
5.694696969690998 1.0 0.0
5.89318181817668 1.0 0.0
6.09166666666213 1.0 0.0
6.290151515147423 1.0 0.0
6.488636363633031 1.0 0.0
6.687121212118713 1.0 0.0
6.885606060604342 1.0 0.0
7.084090909089381 1.0 0.0
7.282575757574369 1.0 0.0
7.481060606059355 1.0 0.0
7.679545454544343 1.0 0.0
7.878030303029329 1.0 0.0
8.076515151514705 1.0 0.0
1.824242424242199 1.0 0.0
2.022727272726695 1.0 0.0
2.221212121211181 1.0 0.0
2.41969696969563 1.0 0.0
2.618181818180092 1.0 0.0
2.816666666664316 1.0 0.0
3.015151515148624 1.0 0.0
3.213636363633039 1.0 0.0
3.412121212117267 1.0 0.0
3.610606060601583 1.0 0.0
3.809090909085975 1.0 0.0
4.007575757570153 1.0 0.0
4.206060606054539 1.0 0.0
4.404545454539001 1.0 0.0
4.603030303023853 1.0 0.0
4.801515151507715 1.0 0.0
4.999999999992074 1.0 0.0
5.198484848477777 1.0 0.0
5.396969696963081 1.0 0.0
5.595454545448261 1.0 0.0
5.793939393933949 1.0 0.0
5.992424242419331 1.0 0.0
6.190909090904785 1.0 0.0
6.389393939390224 1.0 0.0
6.587878787875795 1.0 0.0
6.786363636361617 1.0 0.0
6.984848484846598 1.0 0.0
7.183333333331875 1.0 0.0
7.381818181816625 1.0 0.0
7.580303030301849 1.0 0.0
7.778787878786936 1.0 0.0
7.977272727272114 1.0 0.0
8.175757575757618 1.0 0.0
8.473728813558951 1.0 0.0
8.672457627118133 1.0 0.0
8.871186440676855 1.0 0.0
9.069915254236154 1.0 0.0
9.268644067794812 1.0 0.0
9.467372881354057 1.0 0.0
9.666101694912944 1.0 0.0
9.864830508471961 1.0 0.0
10.06355932203108 1.0 0.0
10.26228813558986 1.0 0.0
10.46101694914916 1.0 0.0
10.65974576270777 1.0 0.0
10.85847457626706 1.0 0.0
11.05720338982589 1.0 0.0
11.25593220338497 1.0 0.0
11.45466101694402 1.0 0.0
11.65338983050287 1.0 0.0
11.85211864406215 1.0 0.0
12.05084745762035 1.0 0.0
12.24957627117938 1.0 0.0
12.44830508473794 1.0 0.0
12.64703389829659 1.0 0.0
12.84576271185557 1.0 0.0
13.04449152541379 1.0 0.0
13.24322033897301 1.0 0.0
13.44194915253121 1.0 0.0
13.6406779660903 1.0 0.0
13.83940677964874 1.0 0.0
14.03813559320751 1.0 0.0
14.23686440676681 1.0 0.0
14.43559322032663 1.0 0.0
14.63432203388679 1.0 0.0
14.8330508474463 1.0 0.0
15.0317796610067 1.0 0.0
15.23050847456608 1.0 0.0
15.42923728812645 1.0 0.0
15.62796610168606 1.0 0.0
15.82669491524602 1.0 0.0
16.02542372880584 1.0 0.0
16.22415254236431 1.0 0.0
16.42288135592496 1.0 0.0
16.62161016948498 1.0 0.0
16.82033898304518 1.0 0.0
17.01906779660567 1.0 0.0
17.2177966101654 1.0 0.0
17.41652542372565 1.0 0.0
17.61525423728425 1.0 0.0
17.81398305084494 1.0 0.0
18.01271186440355 1.0 0.0
18.21144067796387 1.0 0.0
18.41016949152309 1.0 0.0
18.6088983050827 1.0 0.0
18.80762711864282 1.0 0.0
19.00635593220153 1.0 0.0
19.20508474576211 1.0 0.0
19.40381355932072 1.0 0.0
19.60254237288117 1.0 0.0
19.80127118644013 1.0 0.0
8.374364406779554 1.0 0.0
8.573093220338519 1.0 0.0
8.771822033897509 1.0 0.0
8.970550847456504 1.0 0.0
9.169279661015429 1.0 0.0
9.368008474574502 1.0 0.0
9.566737288133496 1.0 0.0
9.765466101692677 1.0 0.0
9.964194915251602 1.0 0.0
10.16292372881015 1.0 0.0
10.36165254236967 1.0 0.0
10.56038135592849 1.0 0.0
10.75911016948728 1.0 0.0
10.95783898304648 1.0 0.0
11.15656779660554 1.0 0.0
11.35529661016447 1.0 0.0
11.55402542372345 1.0 0.0
11.75275423728253 1.0 0.0
11.95148305084111 1.0 0.0
12.15021186439983 1.0 0.0
12.34894067795883 1.0 0.0
12.54766949151722 1.0 0.0
12.74639830507616 1.0 0.0
12.94512711863486 1.0 0.0
13.14385593219357 1.0 0.0
13.34258474575207 1.0 0.0
13.54131355931069 1.0 0.0
13.7400423728695 1.0 0.0
13.93877118642822 1.0 0.0
14.13749999998697 1.0 0.0
14.33622881354686 1.0 0.0
14.53495762710678 1.0 0.0
14.73368644066656 1.0 0.0
14.93241525422655 1.0 0.0
15.13114406778625 1.0 0.0
15.32987288134641 1.0 0.0
15.52860169490635 1.0 0.0
15.7273305084661 1.0 0.0
15.9260593220261 1.0 0.0
16.12478813558534 1.0 0.0
16.32351694914468 1.0 0.0
16.52224576270527 1.0 0.0
16.72097457626511 1.0 0.0
16.91970338982543 1.0 0.0
17.11843220338561 1.0 0.0
17.31716101694539 1.0 0.0
17.51588983050497 1.0 0.0
17.71461864406449 1.0 0.0
17.91334745762401 1.0 0.0
18.11207627118383 1.0 0.0
18.31080508474307 1.0 0.0
18.50953389830311 1.0 0.0
18.70826271186271 1.0 0.0
18.90699152542239 1.0 0.0
19.10572033898203 1.0 0.0
19.30444915254171 1.0 0.0
19.50317796610107 1.0 0.0
19.70190677966065 1.0 0.0
19.90063559322003 1.0 0.0
20.0 0.7999999999999998 0.0
20.0 0.6000000000013869 0.0
20.0 0.4000000000016644 0.0
20.0 0.2000000000008322 0.0
20.0 0.9000000000000369 0.0
20.0 0.7000000000005904 0.0
20.0 0.5000000000017577 0.0
20.0 0.3000000000012483 0.0
20.0 0.1000000000004161 0.0
19.8 0.0 0.0
19.6 0.0 0.0
19.4 0.0 0.0
19.2 0.0 0.0
19.0 0.0 0.0
18.8 0.0 0.0
18.6 0.0 0.0
18.4 0.0 0.0
18.2 0.0 0.0
18.0 0.0 0.0
17.8 0.0 0.0
17.59999999999999 0.0 0.0
17.4 0.0 0.0
17.2 0.0 0.0
16.99999999999999 0.0 0.0
16.79999999999999 0.0 0.0
16.59999999999999 0.0 0.0
16.4 0.0 0.0
16.2 0.0 0.0
15.99999999999999 0.0 0.0
15.79999999999999 0.0 0.0
15.59999999999999 0.0 0.0
15.4 0.0 0.0
15.2 0.0 0.0
15.0 0.0 0.0
14.79999999999999 0.0 0.0
14.59999999999999 0.0 0.0
14.4 0.0 0.0
14.2 0.0 0.0
13.99999999999999 0.0 0.0
13.8 0.0 0.0
13.59999999999999 0.0 0.0
13.4 0.0 0.0
13.2 0.0 0.0
13.0 0.0 0.0
12.79999999999999 0.0 0.0
12.6 0.0 0.0
12.4 0.0 0.0
12.2 0.0 0.0
11.99999999999999 0.0 0.0
11.8 0.0 0.0
11.6 0.0 0.0
11.4 0.0 0.0
11.2 0.0 0.0
11.0 0.0 0.0
10.8 0.0 0.0
10.6 0.0 0.0
10.4 0.0 0.0
10.2 0.0 0.0
9.999999999999998 0.0 0.0
9.799999999999995 0.0 0.0
9.599999999999998 0.0 0.0
9.399999999999997 0.0 0.0
9.199999999999998 0.0 0.0
8.999999999999996 0.0 0.0
8.799999999999997 0.0 0.0
8.599999999999996 0.0 0.0
8.399999999999999 0.0 0.0
8.199999999999996 0.0 0.0
7.999999999999998 0.0 0.0
7.799999999999997 0.0 0.0
7.599999999999998 0.0 0.0
7.399999999999999 0.0 0.0
7.199999999999998 0.0 0.0
6.999999999999995 0.0 0.0
6.799999999999995 0.0 0.0
6.599999999999998 0.0 0.0
6.399999999999997 0.0 0.0
6.199999999999996 0.0 0.0
5.999999999999998 0.0 0.0
5.799999999999999 0.0 0.0
5.599999999999996 0.0 0.0
5.399999999999995 0.0 0.0
5.199999999999996 0.0 0.0
4.999999999999998 0.0 0.0
4.799999999999997 0.0 0.0
4.599999999999998 0.0 0.0
4.399999999999999 0.0 0.0
4.199999999999999 0.0 0.0
3.999999999999996 0.0 0.0
3.799999999999997 0.0 0.0
3.599999999999998 0.0 0.0
3.399999999999999 0.0 0.0
3.199999999999999 0.0 0.0
3.0 0.0 0.0
2.800000000000001 0.0 0.0
2.599999999999998 0.0 0.0
2.399999999999999 0.0 0.0
2.199999999999996 0.0 0.0
1.999999999999996 0.0 0.0
1.800000000000001 0.0 0.0
1.599999999999998 0.0 0.0
1.399999999999999 0.0 0.0
1.200000000000003 0.0 0.0
1.0 0.0 0.0
0.7999999999999972 0.0 0.0
0.5999999999999979 0.0 0.0
0.3999999999999986 0.0 0.0
0.1999999999999993 0.0 0.0
19.90000000000022 0.0 0.0
19.69999999999997 0.0 0.0
19.49999999999987 0.0 0.0
19.30000000000005 0.0 0.0
19.09999999999999 0.0 0.0
18.89999999999987 0.0 0.0
18.7 0.0 0.0
18.49999999999999 0.0 0.0
18.30000000000001 0.0 0.0
18.09999999999987 0.0 0.0
17.90000000000013 0.0 0.0
17.7 0.0 0.0
17.49999999999987 0.0 0.0
17.30000000000025 0.0 0.0
17.10000000000001 0.0 0.0
16.90000000000005 0.0 0.0
16.70000000000003 0.0 0.0
16.50000000000006 0.0 0.0
16.29999999999997 0.0 0.0
16.09999999999999 0.0 0.0
15.89999999999987 0.0 0.0
15.69999999999999 0.0 0.0
15.49999999999999 0.0 0.0
15.3 0.0 0.0
15.10000000000003 0.0 0.0
14.90000000000005 0.0 0.0
14.69999999999992 0.0 0.0
14.49999999999996 0.0 0.0
14.29999999999999 0.0 0.0
14.10000000000008 0.0 0.0
13.89999999999988 0.0 0.0
13.70000000000003 0.0 0.0
13.50000000000004 0.0 0.0
13.29999999999992 0.0 0.0
13.09999999999995 0.0 0.0
12.90000000000016 0.0 0.0
12.7 0.0 0.0
12.49999999999986 0.0 0.0
12.30000000000003 0.0 0.0
12.10000000000016 0.0 0.0
11.90000000000005 0.0 0.0
11.69999999999994 0.0 0.0
11.49999999999993 0.0 0.0
11.30000000000005 0.0 0.0
11.0999999999999 0.0 0.0
10.90000000000004 0.0 0.0
10.69999999999995 0.0 0.0
10.50000000000012 0.0 0.0
10.29999999999999 0.0 0.0
10.09999999999993 0.0 0.0
9.900000000000077 0.0 0.0
9.699999999999969 0.0 0.0
9.499999999999982 0.0 0.0
9.299999999999969 0.0 0.0
9.100000000000108 0.0 0.0
8.899999999999972 0.0 0.0
8.699999999999958 0.0 0.0
8.499999999999998 0.0 0.0
8.30000000000003 0.0 0.0
8.099999999999977 0.0 0.0
7.899999999999974 0.0 0.0
7.700000000000166 0.0 0.0
7.499999999999854 0.0 0.0
7.299999999999997 0.0 0.0
7.100000000000019 0.0 0.0
6.900000000000002 0.0 0.0
6.699999999999974 0.0 0.0
6.500000000000037 0.0 0.0
6.299999999999981 0.0 0.0
6.100000000000014 0.0 0.0
5.899999999999949 0.0 0.0
5.700000000000049 0.0 0.0
5.499999999999956 0.0 0.0
5.300000000000118 0.0 0.0
5.100000000000005 0.0 0.0
4.900000000000109 0.0 0.0
4.699999999999982 0.0 0.0
4.499999999999936 0.0 0.0
4.300000000000137 0.0 0.0
4.100000000000012 0.0 0.0
3.899999999999888 0.0 0.0
3.69999999999974 0.0 0.0
3.500000000000046 0.0 0.0
3.299999999999965 0.0 0.0
3.099999999999817 0.0 0.0
2.900000000000066 0.0 0.0
2.699999999999793 0.0 0.0
2.500000000000064 0.0 0.0
2.299999999999823 0.0 0.0
[...]
POINT_DATA 2790
VECTORS vector double
1.0 0.0 0.0
0.0 0.0 0.0
0.0 0.0 0.0
0.0 0.0 0.0
1.19305949568 0.0 0.0
1.0 0.0 0.0
0.0 0.0 0.0
0.0 0.0 0.0
0.0 0.0 0.0
0.0 0.0 0.0
0.0 0.0 0.0
0.0 0.0 0.0
0.0 0.0 0.0
0.0 0.0 0.0
0.0 0.0 0.0
0.0 0.0 0.0
0.0 0.0 0.0
0.0 0.0 0.0
0.0 0.0 0.0
0.0 0.0 0.0
0.0 0.0 0.0
0.0 0.0 0.0
0.0 0.0 0.0
0.0 0.0 0.0
0.0 0.0 0.0
0.0 0.0 0.0
0.0 0.0 0.0
0.0 0.0 0.0
0.0 0.0 0.0
0.0 0.0 0.0
0.0 0.0 0.0
0.0 0.0 0.0
0.0 0.0 0.0
0.0 0.0 0.0
0.0 0.0 0.0
0.0 0.0 0.0
0.0 0.0 0.0
0.0 0.0 0.0
0.0 0.0 0.0
0.0 0.0 0.0
0.0 0.0 0.0
0.0 0.0 0.0
0.0 0.0 0.0
0.0 0.0 0.0
0.0 0.0 0.0
0.0 0.0 0.0
0.0 0.0 0.0
0.0 0.0 0.0
0.0 0.0 0.0
0.0 0.0 0.0
0.0 0.0 0.0
0.0 0.0 0.0
0.0 0.0 0.0
0.0 0.0 0.0
0.0 0.0 0.0
0.0 0.0 0.0
0.0 0.0 0.0
0.0 0.0 0.0
0.0 0.0 0.0
0.0 0.0 0.0
0.0 0.0 0.0
0.0 0.0 0.0
0.0 0.0 0.0
0.0 0.0 0.0
0.0 0.0 0.0
0.0 0.0 0.0
0.0 0.0 0.0
0.0 0.0 0.0
0.0 0.0 0.0
0.0 0.0 0.0
0.0 0.0 0.0
0.0 0.0 0.0
0.0 0.0 0.0
0.0 0.0 0.0
0.0 0.0 0.0
0.0 0.0 0.0
0.0 0.0 0.0
0.0 0.0 0.0
0.0 0.0 0.0
0.0 0.0 0.0
0.0 0.0 0.0
0.0 0.0 0.0
0.0 0.0 0.0
0.0 0.0 0.0
0.0 0.0 0.0
0.0 0.0 0.0
0.0 0.0 0.0
0.0 0.0 0.0
0.0 0.0 0.0
0.0 0.0 0.0
0.0 0.0 0.0
0.0 0.0 0.0
0.0 0.0 0.0
0.0 0.0 0.0
0.0 0.0 0.0
0.0 0.0 0.0
0.0 0.0 0.0
0.0 0.0 0.0
0.0 0.0 0.0
0.0 0.0 0.0
0.0 0.0 0.0
0.0 0.0 0.0
0.0 0.0 0.0
0.0 0.0 0.0
0.0 0.0 0.0
0.0 0.0 0.0
0.0 0.0 0.0
0.0 0.0 0.0
0.0 0.0 0.0
0.0 0.0 0.0
0.0 0.0 0.0
0.0 0.0 0.0
0.0 0.0 0.0
0.0 0.0 0.0
0.0 0.0 0.0
0.0 0.0 0.0
0.0 0.0 0.0
0.0 0.0 0.0
0.0 0.0 0.0
0.0 0.0 0.0
0.0 0.0 0.0
0.0 0.0 0.0
0.0 0.0 0.0
0.0 0.0 0.0
0.0 0.0 0.0
0.0 0.0 0.0
0.0 0.0 0.0
0.0 0.0 0.0
0.0 0.0 0.0
0.0 0.0 0.0
0.0 0.0 0.0
0.0 0.0 0.0
0.0 0.0 0.0
0.0 0.0 0.0
0.0 0.0 0.0
0.0 0.0 0.0
0.0 0.0 0.0
0.0 0.0 0.0
0.0 0.0 0.0
0.0 0.0 0.0
0.0 0.0 0.0
0.0 0.0 0.0
0.0 0.0 0.0
0.0 0.0 0.0
0.0 0.0 0.0
0.0 0.0 0.0
0.0 0.0 0.0
0.0 0.0 0.0
0.0 0.0 0.0
0.0 0.0 0.0
0.0 0.0 0.0
0.0 0.0 0.0
0.0 0.0 0.0
0.0 0.0 0.0
0.0 0.0 0.0
0.0 0.0 0.0
0.0 0.0 0.0
0.0 0.0 0.0
0.0 0.0 0.0
0.0 0.0 0.0
0.0 0.0 0.0
0.0 0.0 0.0
0.0 0.0 0.0
0.0 0.0 0.0
0.0 0.0 0.0
0.0 0.0 0.0
0.0 0.0 0.0
0.0 0.0 0.0
0.0 0.0 0.0
0.0 0.0 0.0
0.0 0.0 0.0
0.0 0.0 0.0
0.0 0.0 0.0
0.0 0.0 0.0
0.0 0.0 0.0
0.0 0.0 0.0
0.0 0.0 0.0
0.0 0.0 0.0
0.0 0.0 0.0
0.0 0.0 0.0
0.0 0.0 0.0
0.0 0.0 0.0
0.0 0.0 0.0
0.0 0.0 0.0
0.0 0.0 0.0
0.0 0.0 0.0
0.0 0.0 0.0
0.0 0.0 0.0
0.0 0.0 0.0
0.0 0.0 0.0
0.0 0.0 0.0
0.0 0.0 0.0
0.0 0.0 0.0
0.0 0.0 0.0
0.0 0.0 0.0
0.0 0.0 0.0
0.0 0.0 0.0
0.0 0.0 0.0
0.0 0.0 0.0
0.0 0.0 0.0
0.0 0.0 0.0
0.0 0.0 0.0
0.0 0.0 0.0
0.0 0.0 0.0
0.0 0.0 0.0
0.826521604144 -5.02084554863e-05 0.0
1.15556109108 -0.00209182490844 0.0
1.19791164659 -0.000619784932495 0.0
1.19475819899 1.41905654573e-05 0.0
0.430316729532 -0.00214575273089 0.0
1.01407616489 0.00446223517329 0.0
1.17980204125 0.000139603540029 0.0
1.19436234782 -0.000185855622497 0.0
1.19422546849 4.46366629222e-05 0.0
1.19292493314 0.0 0.0
1.19246058607 0.0 0.0
1.19209262108 0.0 0.0
1.19196658061 0.0 0.0
1.1913943457 0.0 0.0
1.19134127195 0.0 0.0
1.1912976099 0.0 0.0
1.1913018741 0.0 0.0
1.19138161619 0.0 0.0
1.19149633001 0.0 0.0
1.19155091635 0.0 0.0
1.19150422311 0.0 0.0
1.19140795052 0.0 0.0
1.19129599312 0.0 0.0
1.19082513191 0.0 0.0
1.19081246849 0.0 0.0
1.19122034812 0.0 0.0
1.19080004616 0.0 0.0
1.19077647798 0.0 0.0
1.19120130245 0.0 0.0
1.19076251865 0.0 0.0
1.19074066137 0.0 0.0
1.19115553514 0.0 0.0
1.19071439408 0.0 0.0
1.19069772432 0.0 0.0
1.19111596502 0.0 0.0
1.19066854926 0.0 0.0
1.19063254871 0.0 0.0
1.19104858245 0.0 0.0
1.19061387378 0.0 0.0
1.19056229436 0.0 0.0
1.19091721485 0.0 0.0
1.19041287212 0.0 0.0
1.19028564442 0.0 0.0
1.190508822 0.0 0.0
1.18986509835 0.0 0.0
1.18966065908 0.0 0.0
1.18988717329 0.0 0.0
1.18918656075 0.0 0.0
1.18901354552 0.0 0.0
1.18971891044 0.0 0.0
1.18944547303 0.0 0.0
1.18948087891 0.0 0.0
1.19046663989 0.0 0.0
1.1908911359 0.0 0.0
1.19215990163 0.0 0.0
1.19467070798 0.0 0.0
1.19569486387 0.0 0.0
1.19618017932 0.0 0.0
1.19649052906 0.0 0.0
1.19513288009 0.0 0.0
1.19350169278 0.0 0.0
1.19227532209 0.0 0.0
1.1914705726 0.0 0.0
1.1899841977 0.0 0.0
1.18839636963 0.0 0.0
1.18755775704 0.0 0.0
1.18772424786 0.0 0.0
1.1873892081 0.0 0.0
1.18757551343 0.0 0.0
1.18903471128 0.0 0.0
1.19058621547 0.0 0.0
1.19340273944 0.0 0.0
1.19794940035 0.0 0.0
1.20085955881 0.0 0.0
1.20291503133 0.0 0.0
1.20444638689 0.0 0.0
1.20385784208 0.0 0.0
1.20258706752 0.0 0.0
1.20146670812 0.0 0.0
1.20045419413 0.0 0.0
1.19833573256 0.0 0.0
1.19646428275 0.0 0.0
1.19442098428 0.0 0.0
1.19248423344 0.0 0.0
1.19153757453 0.0 0.0
1.19007284471 0.0 0.0
1.18952742132 0.0 0.0
1.19023299311 0.0 0.0
1.19143444871 0.0 0.0
1.19178202085 0.0 0.0
1.19291433037 0.0 0.0
1.19387417989 0.0 0.0
1.19340340785 0.0 0.0
1.19332846572 0.0 0.0
1.19197963174 0.0 0.0
1.18625005451 0.0 0.0
1.1737686085 0.0 0.0
1.15701130172 0.0 0.0
1.14258662828 0.0 0.0
1.132069141 0.0 0.0
1.12268810936 0.0 0.0
1.1116913007 0.0 0.0
1.09798376842 0.0 0.0
1.08082669062 0.0 0.0
1.06187953368 0.0 0.0
1.04099537361 0.0 0.0
1.01876137534 0.0 0.0
1.00357437443 0.0 0.0
1.19404327107 0.0 0.0
1.19332833757 0.0 0.0
1.19318046207 0.0 0.0
1.19231428085 0.0 0.0
1.19198802164 0.0 0.0
1.19174966279 0.0 0.0
1.19178365243 0.0 0.0
1.19141187438 0.0 0.0
1.1914474542 0.0 0.0
1.19180394007 0.0 0.0
1.19162525431 0.0 0.0
1.19162459453 0.0 0.0
1.19184388588 0.0 0.0
1.19151317072 0.0 0.0
1.19169550399 0.0 0.0
1.19130616873 0.0 0.0
1.19167778027 0.0 0.0
1.19168362863 0.0 0.0
1.19127923089 0.0 0.0
1.19167127754 0.0 0.0
1.191666478 0.0 0.0
1.19124823198 0.0 0.0
1.19163188518 0.0 0.0
1.19161727634 0.0 0.0
1.19120076778 0.0 0.0
1.19158875341 0.0 0.0
1.19157213164 0.0 0.0
1.19114365171 0.0 0.0
1.19151794724 0.0 0.0
1.19150834451 0.0 0.0
1.19107907466 0.0 0.0
1.19141450121 0.0 0.0
1.1913384525 0.0 0.0
1.19083464391 0.0 0.0
1.19106470571 0.0 0.0
1.19083994138 0.0 0.0
1.19024939162 0.0 0.0
1.19044350186 0.0 0.0
1.19022164319 0.0 0.0
1.18981449591 0.0 0.0
1.19013018299 0.0 0.0
1.19044675598 0.0 0.0
1.19019924771 0.0 0.0
1.19074603597 0.0 0.0
1.19158616956 0.0 0.0
1.19231365426 0.0 0.0
1.19424025209 0.0 0.0
1.19607095248 0.0 0.0
1.19666197509 0.0 0.0
1.19701341206 0.0 0.0
1.19655190949 0.0 0.0
1.19493341316 0.0 0.0
1.19368047406 0.0 0.0
1.19217417657 0.0 0.0
1.19099753248 0.0 0.0
1.18987024772 0.0 0.0
1.18867377132 0.0 0.0
1.18844754224 0.0 0.0
1.18845382879 0.0 0.0
1.18826147959 0.0 0.0
1.18910254713 0.0 0.0
1.19076517519 0.0 0.0
1.19285312126 0.0 0.0
1.19659621231 0.0 0.0
1.20035541354 0.0 0.0
1.20263277996 0.0 0.0
1.20436061385 0.0 0.0
1.20483429227 0.0 0.0
1.20382005543 0.0 0.0
1.20278015877 0.0 0.0
1.2012337213 0.0 0.0
1.19970440271 0.0 0.0
1.19788291457 0.0 0.0
1.19600691639 0.0 0.0
1.1939657951 0.0 0.0
1.19237879114 0.0 0.0
1.19113177567 0.0 0.0
1.19072171833 0.0 0.0
1.19064430036 0.0 0.0
1.19168301067 0.0 0.0
1.1923634695 0.0 0.0
1.19308501458 0.0 0.0
1.1942035865 0.0 0.0
1.19432268674 0.0 0.0
1.19393476696 0.0 0.0
1.19318627943 0.0 0.0
1.18952757911 0.0 0.0
1.18072823778 0.0 0.0
1.16506146532 0.0 0.0
1.14878109736 0.0 0.0
1.13692919953 0.0 0.0
1.12737601109 0.0 0.0
1.11744121971 0.0 0.0
1.10521217045 0.0 0.0
1.08932664646 0.0 0.0
1.07140257687 0.0 0.0
1.0518464139 0.0 0.0
1.02967525638 0.0 0.0
1.01050933824 0.0 0.0
0.999763367227 0.0 0.0
1.0 0.0 0.0
1.0 0.0 0.0
1.0 0.0 0.0
1.0 0.0 0.0
1.0 0.0 0.0
1.0 0.0 0.0
1.0 0.0 0.0
1.0 0.0 0.0
1.0 0.0 0.0
1.17151379916 -0.0678208796263 0.0
1.22269079077 -0.0407442026469 0.0
1.21991382178 -0.0187245807766 0.0
1.18754720979 -0.0022831876901 0.0
1.19276344672 -0.000800268148993 0.0
1.19482381171 -3.62057049725e-05 0.0
1.19342410013 -0.000440824344246 0.0
1.19388397267 -0.000169319526552 0.0
1.19362021274 -0.000211550668992 0.0
1.19352181187 -0.000237234538681 0.0
1.19342324359 -0.000228616046887 0.0
1.19335586163 -0.000216326035799 0.0
1.19324623442 -0.000417967339801 0.0
1.19245824067 -0.000572437066718 0.0
1.19191074689 -0.000724533646066 0.0
1.18074559462 -0.000396103522325 0.0
1.17993198389 0.000151695761696 0.0
1.17853964324 0.00251236758289 0.0
1.18041129687 0.00377068998647 0.0
1.17955887641 0.000440239578094 0.0
1.19483993913 -0.00797015805503 0.0
1.17707157866 0.0058678091496 0.0
1.18149336007 -0.0046725956637 0.0
1.18286276001 -0.0019406667359 0.0
1.18203892444 0.00970324264624 0.0
1.18181425364 -0.00269011340886 0.0
1.18042860569 0.00260190551157 0.0
1.18825593933 -0.00356621053701 0.0
1.17895525496 0.0016390414036 0.0
1.19122692747 -0.00309547396559 0.0
1.18014867796 -0.00320617316778 0.0
1.17998260127 -0.00208705845218 0.0
1.1818920397 -0.00685243732733 0.0
1.11644556881 -0.00252889927975 0.0
1.20965179911 -0.166040995288 0.0
1.19159788596 -0.000101214963081 0.0
1.19420245476 0.00193993424731 0.0
1.20499035274 -0.00277629990989 0.0
1.19737006395 2.08172742571e-05 0.0
1.20935428219 0.00124946594473 0.0
1.1966064068 -0.016679119106 0.0
1.19625028301 -0.00717294882345 0.0
1.19832788471 0.00779165739384 0.0
1.19022342705 0.00161370211963 0.0
1.19490109621 -0.00282133447747 0.0
1.20053641964 -0.000820413950837 0.0
1.19613260185 0.00395651768756 0.0
1.19245443098 0.000679542791814 0.0
1.19217507537 0.000363074112483 0.0
1.19231395817 -0.000308804141324 0.0
1.19296880872 -0.000386017467707 0.0
1.19352471861 -0.000138659361571 0.0
1.20245904372 -0.0540605799747 0.0
1.19388277517 8.17516955974e-05 0.0
1.19386335649 5.73513169143e-05 0.0
1.1938917028 5.8591524513e-05 0.0
1.17180933293 -0.0216885560789 0.0
1.193926309 7.47705354202e-05 0.0
1.1329211503 -0.0220945907368 0.0
1.12844545473 -0.0352766759687 0.0
1.19391002446 9.5489714884e-05 0.0
1.19389720419 2.56742311463e-05 0.0
1.08413008408 -0.000628165305502 0.0
1.19412618105 0.000129155382184 0.0
1.08255373762 -8.56061095807e-05 0.0
1.07729309925 -0.000294043275743 0.0
1.0742777226 0.00316435197419 0.0
1.06603225749 -0.0021438685998 0.0
1.09177076227 -0.00433510289705 0.0
1.0711751135 0.00126506073468 0.0
1.05861698922 0.00315168498494 0.0
1.07414786019 -0.00246910899136 0.0
1.06649477854 0.0111583734874 0.0
1.076722352 0.00159719198513 0.0
1.0789306311 -0.00349767967211 0.0
1.0750666391 -0.000817492753245 0.0
1.07788353984 0.00561576235499 0.0
1.08306110882 0.000476417840202 0.0
1.08368043364 0.000302261454625 0.0
1.08374367886 -0.000109407229927 0.0
1.08312113409 -0.000293399829086 0.0
1.08296812472 -0.000173674916506 0.0
1.08266115585 0.000350647708474 0.0
1.08261348529 0.000324888933185 0.0
1.08257001778 0.000313279951573 0.0
1.19388918164 0.000283736458249 0.0
1.08254337473 0.000326022365062 0.0
1.08255853877 0.000322707094768 0.0
1.08262227603 0.000317133616668 0.0
1.08228239832 0.000770951891193 0.0
1.1944471506 -0.000312813338087 0.0
1.03249396351 -0.0372851903875 0.0
1.19573083745 -0.00108506578929 0.0
1.19179757363 -0.00184321518953 0.0
1.19987175381 -0.00271272705062 0.0
1.19377359579 -0.00311986799328 0.0
1.18945026181 -0.000406832214735 0.0
1.03250944376 -0.00339893610403 0.0
1.0695496229 -0.00169557099087 0.0
1.04032676293 -0.0031820267374 0.0
1.03639977639 -0.00775096420195 0.0
1.16239947228 -0.0660753304244 0.0
1.02026510498 -0.0222614378546 0.0
1.19579180224 -0.00122957678273 0.0
1.19087066121 0.000100033634843 0.0
1.19127038638 0.000316767346305 0.0
1.13565423883 -0.0190439544008 0.0
1.19244982854 -0.000336763506758 0.0
1.07448403331 -0.0284505787549 0.0
1.19293748861 0.00213893958009 0.0
1.1931599959 -0.000202484740593 0.0
1.19358149654 -0.00011552940405 0.0
1.19895439501 0.000810181976489 0.0
0.949167217402 -0.00553680975039 0.0
1.19362650878 -4.6188300851e-05 0.0
1.19607739433 -0.00203893768821 0.0
1.19365319725 -3.68852833754e-05 0.0
1.19369264706 -3.77873652219e-05 0.0
1.17208545477 -0.0127294102602 0.0
1.19371533651 -1.16934037398e-05 0.0
1.19358829105 2.96052267401e-05 0.0
1.19353648548 -0.000126611741952 0.0
0.892080546986 -0.00113941632914 0.0
1.18876957643 0.000490261435673 0.0
1.19359151804 0.000102295611647 0.0
0.913776057849 -0.00127093400812 0.0
0.865298718482 0.0013945373406 0.0
1.19329719744 -0.000192946274372 0.0
0.892308095206 0.000279130360947 0.0
1.19280269565 0.00431932639093 0.0
1.18865475193 -0.0122010820472 0.0
0.892009907905 0.00027411001592 0.0
0.8916835138 0.000278539756002 0.0
0.891399428371 0.000289829621664 0.0
0.891157196797 0.000308101038938 0.0
1.20542426475 0.00334083187077 0.0
1.19545574192 -0.00136227998557 0.0
0.890910895959 0.000336642576259 0.0
0.89070029021 0.000232291723401 0.0
0.891516895863 -4.62578191865e-05 0.0
0.892316268568 -7.27694579241e-05 0.0
0.891958820176 -0.00020599662343 0.0
1.20574772437 -0.00152689231459 0.0
1.19464582344 0.00113279457739 0.0
0.89155048958 2.58930516009e-05 0.0
0.890307156147 0.000732476954735 0.0
0.701971304223 0.00153688500937 0.0
0.878418954422 0.00292103511231 0.0
0.880636136506 -0.00075480783403 0.0
0.885427110458 0.00258461679816 0.0
0.874892808698 -0.000410250562412 0.0
0.860973999991 0.00727788942266 0.0
0.877477765223 -0.0031203750273 0.0
0.878357299914 0.00182260905889 0.0
0.849576098683 -0.000866833624749 0.0
0.885206047225 0.000842938227814 0.0
0.664244796995 0.00232699116893 0.0
0.765290223521 -0.000583698987619 0.0
0.760953328695 0.000412675031389 0.0
1.19653026757 -0.00188953621227 0.0
1.19122315071 0.000664864273582 0.0
1.19142239502 -0.00114905530031 0.0
1.20172718236 -0.00216186754536 0.0
1.18905215961 -0.000620911308775 0.0
1.19226634438 -0.00178852102161 0.0
0.859084750198 -0.00576604356469 0.0
1.01752525574 -0.0123189229905 0.0
1.19319222483 -0.000444000460636 0.0
1.03238507797 -0.0527350717952 0.0
1.18923695412 -0.00190883759367 0.0
1.19671319093 -0.00123002601794 0.0
1.0409657991 -0.0207515812897 0.0
0.754834467095 0.000626003690799 0.0
1.10742111138 -0.0820808245631 0.0
0.985273389214 -0.0589950147586 0.0
0.813422677133 -0.00479875746333 0.0
1.19053005283 -0.000169398071857 0.0
1.19073438235 7.44063381358e-05 0.0
1.19141722588 -0.000215746709349 0.0
1.1916515116 0.000761688789298 0.0
1.28488363168 -0.307381005815 0.0
1.19701765591 0.00128197211551 0.0
1.19197941907 -7.48719298534e-05 0.0
1.19719541036 -0.00110815767277 0.0
1.19223361863 -1.91534739617e-06 0.0
1.19224797189 -8.06529598301e-06 0.0
1.17594293011 -0.0123820198536 0.0
1.19054052521 0.00181039506752 0.0
1.10657777469 -0.0156025343746 0.0
1.20153705899 0.00311395845931 0.0
1.19291473668 -0.00202910821072 0.0
1.19228718353 -1.13515273077e-06 0.0
1.20594750163 -0.000457203558437 0.0
1.19488455415 0.000576741523727 0.0
1.14759008955 -0.00904103192939 0.0
1.19187792646 0.000847361649662 0.0
1.19232917167 3.18742151209e-06 0.0
1.1923484414 1.39923600239e-05 0.0
1.19230678796 6.91501469269e-06 0.0
1.19260450164 6.30070720505e-05 0.0
1.19240311477 0.000173444572174 0.0
1.19256316016 -0.000195593182358 0.0
1.18310253192 -0.00267520185093 0.0
0.732053809423 -0.00746147742423 0.0
0.776269975312 -0.0138891798585 0.0
0.835609951476 -0.0206027351575 0.0
0.708814932117 -0.004963024463 0.0
0.716564128895 -9.24711988832e-05 0.0
0.716416712167 -0.000110263655307 0.0
0.716377363595 -9.94493861825e-05 0.0
1.19656958504 -0.00448196521173 0.0
0.716375345523 -9.48800236448e-05 0.0
0.716415881141 -9.588531291e-05 0.0
0.716460298029 -8.94373144834e-05 0.0
1.1859062085 0.00253045745006 0.0
1.18736285232 -0.00480128090544 0.0
0.716468728377 -9.83346292735e-05 0.0
1.18627028081 0.000955402210928 0.0
0.717239056197 -0.000364157192398 0.0
0.718756435193 -0.000496503092938 0.0
0.719310052 0.000722628549712 0.0
0.719591557183 0.000867267884456 0.0
1.18410459799 0.00199595422533 0.0
0.719385117986 0.00096363630218 0.0
1.18452688059 0.00206814542545 0.0
0.726765594781 -0.000111296899318 0.0
0.712999427522 0.00326595549478 0.0
1.18435028726 0.0020657904334 0.0
0.729350999265 -0.00158646921733 0.0
1.18436218514 0.00205147169659 0.0
0.727371109928 -0.00137598972894 0.0
0.705483438731 -0.000840459745815 0.0
1.18427803703 0.0020427984869 0.0
0.728683942697 -0.00199052429103 0.0
0.698151119344 -0.000106544883147 0.0
1.18420915667 0.00205020385514 0.0
0.715301554584 -0.00201038818103 0.0
1.18416260247 0.00205744145595 0.0
1.18366330242 0.00167289578217 0.0
0.720983733616 0.00196898639778 0.0
1.18299147829 0.00145475834614 0.0
1.18251021149 0.000800287484879 0.0
1.20661143575 -0.0134223978026 0.0
0.71070434675 -0.00164012102718 0.0
0.706831643611 0.00563853475356 0.0
1.1813414957 0.00151371982783 0.0
1.1807794506 0.00203179296114 0.0
0.711503784325 -0.000158486224584 0.0
0.685080106047 0.000170189347773 0.0
1.18137544863 0.00704789504797 0.0
0.719498979742 0.000113385517799 0.0
0.660085710323 0.000114775647475 0.0
1.18527361771 -0.0015169067543 0.0
1.18089939952 -0.00342841578765 0.0
0.705241777295 0.000212417522332 0.0
1.18055727685 -0.00104870046556 0.0
1.17958111222 0.0035371928038 0.0
1.18246569332 0.0131528063957 0.0
1.18652039184 -0.00507107135771 0.0
1.1925676163 0.000949144953171 0.0
1.18374831454 0.000425622749417 0.0
1.19052206856 -0.00339794507962 0.0
1.18102322889 0.00183298887022 0.0
1.179800328 -0.00112552391599 0.0
1.21947565519 -0.0321245025744 0.0
1.2024048127 -0.0501478779504 0.0
1.18593616188 -0.0563667235385 0.0
1.1786151304 0.00157729269833 0.0
1.22101351727 -0.0265547632928 0.0
1.21281565918 -0.0138620914845 0.0
1.17943808646 0.00434074580374 0.0
1.18898318333 -0.005152406459 0.0
1.18209089176 0.00118345531323 0.0
1.18755955538 0.00321387221639 0.0
1.18758576007 -0.00491436876899 0.0
1.17692502025 0.00943146933026 0.0
0.728173762019 0.00115891520361 0.0
1.17874505343 0.00113565870961 0.0
0.726404775455 0.00191252579256 0.0
0.692790932758 -0.0022587619973 0.0
0.703310586207 -0.000707957791863 0.0
1.18091802826 -0.00560091116248 0.0
0.719879027988 0.000651838653851 0.0
0.699727876298 0.00128962323059 0.0
1.18353441854 -0.00102612043335 0.0
1.17862371083 0.00408290984114 0.0
0.722373717825 -0.000350962884907 0.0
0.72683719295 0.0022910922506 0.0
1.17980601426 -0.000833734913005 0.0
1.19257166646 -3.93751395546e-05 0.0
1.1802509705 -0.00106056587762 0.0
1.18287922796 -0.00214207553543 0.0
0.705234292021 0.00253232607429 0.0
1.18330382859 -0.00225414000944 0.0
1.18410639204 -0.00213280452525 0.0
1.18441050158 -0.00171665715815 0.0
1.18448838293 -0.00175951690494 0.0
1.18460378458 -0.00177375119101 0.0
1.18472784096 -0.00175792429506 0.0
1.18480426532 -0.00179069804826 0.0
1.18421533866 -0.00138303337347 0.0
1.18496714855 -0.00172954824147 0.0
1.18476668719 -0.00178860483309 0.0
1.18496268045 -0.00214605332662 0.0
1.18850681294 -3.15738956488e-05 0.0
1.19237558719 -0.000132860605863 0.0
0.723392597388 -0.00403970114705 0.0
0.710682831827 -0.00122560395148 0.0
0.722563279474 -6.91756733308e-06 0.0
0.724962866764 -0.00153984231237 0.0
0.725054684912 -0.00168026264571 0.0
1.19233846624 -7.13450509307e-06 0.0
0.725214507698 -0.00100510216024 0.0
0.723914901275 -0.00130275216248 0.0
0.722458976252 -0.00116274885399 0.0
0.722151997519 -0.000950628462502 0.0
0.722150101515 -0.000962291638499 0.0
0.722123526952 -0.000966360284491 0.0
1.19231916584 -3.12676633624e-05 0.0
0.722121857671 -0.000952546379806 0.0
0.722157084559 -0.000947090552497 0.0
0.722199257547 -0.00096134294232 0.0
0.727308161317 0.000418974209206 0.0
1.19228515213 -4.62807289691e-05 0.0
1.19224506209 -4.45306287887e-05 0.0
1.19240534629 -0.00143946380837 0.0
1.1922143949 -4.01468945253e-05 0.0
1.19973045988 -0.00159861498046 0.0
1.10895226078 -0.00263573297555 0.0
1.19209607894 -0.00011520019928 0.0
1.00567824527 -0.0106856482054 0.0
1.08281708909 -0.0186255196402 0.0
1.19226493667 -6.51414473984e-05 0.0
1.19171633149 -0.000236745114106 0.0
1.22402902658 -0.100387933164 0.0
1.19096802398 -0.00023756842886 0.0
1.19015829538 8.99183519509e-05 0.0
1.19084224735 -0.00115439648624 0.0
1.19067900382 0.000258106264821 0.0
1.19411872157 0.0015128329194 0.0
1.19424900355 -0.000585726010996 0.0
1.19759821372 -0.00019625140752 0.0
1.19381867726 -0.0012357353961 0.0
1.12962643962 -0.00937052306439 0.0
1.16160937754 -0.00950099202684 0.0
1.18874392353 0.000636421090533 0.0
1.20321787685 -0.00111571596744 0.0
1.19047359774 -3.76909953165e-06 0.0
1.19611889319 0.0031189792175 0.0
1.18780605098 -0.00501229944689 0.0
1.19425126609 -7.10671115725e-05 0.0
1.19371942629 -0.000234556474583 0.0