# vtk DataFile Version 2.0
2D Simulation Python
ASCII
DATASET UNSTRUCTURED_GRID
FIELD FieldData 1
NODES 1 2 int
2790 1289

POINTS 2790 double
0.0 1.0 0.0
1.725 1.0 0.0
8.275 1.0 0.0
20.0 1.0 0.0
20.0 0.0 0.0
0.0 0.0 0.0
0.1916666666663293 1.0 0.0
0.3833333333324708 1.0 0.0
0.574999999998553 1.0 0.0
0.7666666666645966 1.0 0.0
0.9583333333312576 1.0 0.0
1.149999999998384 1.0 0.0
1.341666666665662 1.0 0.0
1.533333333332819 1.0 0.0
0.0958333333331406 1.0 0.0
0.2874999999994247 1.0 0.0
0.4791666666655395 1.0 0.0
0.6708333333315728 1.0 0.0
0.8624999999976626 1.0 0.0
1.054166666664886 1.0 0.0
1.245833333332057 1.0 0.0
1.437499999999343 1.0 0.0
1.629166666666455 1.0 0.0
1.92348484848444 1.0 0.0
2.121969696968978 1.0 0.0
2.320454545453434 1.0 0.0
2.518939393937826 1.0 0.0
2.717424242422235 1.0 0.0
2.915909090906411 1.0 0.0
3.1143939393908 1.0 0.0
3.312878787875129 1.0 0.0
3.511363636359531 1.0 0.0
3.709848484843827 1.0 0.0
3.90833333332816 1.0 0.0
4.106818181812215 1.0 0.0
4.305303030296804 1.0 0.0
4.503787878781365 1.0 0.0
4.702272727265711 1.0 0.0
4.900757575750005 1.0 0.0
5.099242424235156 1.0 0.0
5.297727272720327 1.0 0.0
5.496212121205663 1.0 0.0
5.694696969690998 1.0 0.0
5.89318181817668 1.0 0.0
6.09166666666213 1.0 0.0
6.290151515147423 1.0 0.0
6.488636363633031 1.0 0.0
6.687121212118713 1.0 0.0
6.885606060604342 1.0 0.0
7.084090909089381 1.0 0.0
7.282575757574369 1.0 0.0
7.481060606059355 1.0 0.0
7.679545454544343 1.0 0.0
7.878030303029329 1.0 0.0
8.076515151514705 1.0 0.0
1.824242424242199 1.0 0.0
2.022727272726695 1.0 0.0
2.221212121211181 1.0 0.0
2.41969696969563 1.0 0.0
2.618181818180092 1.0 0.0
2.816666666664316 1.0 0.0
3.015151515148624 1.0 0.0
3.213636363633039 1.0 0.0
3.412121212117267 1.0 0.0
3.610606060601583 1.0 0.0
3.809090909085975 1.0 0.0
4.007575757570153 1.0 0.0
4.206060606054539 1.0 0.0
4.404545454539001 1.0 0.0
4.603030303023853 1.0 0.0
4.801515151507715 1.0 0.0
4.999999999992074 1.0 0.0
5.198484848477777 1.0 0.0
5.396969696963081 1.0 0.0
5.595454545448261 1.0 0.0
5.793939393933949 1.0 0.0
5.992424242419331 1.0 0.0
6.190909090904785 1.0 0.0
6.389393939390224 1.0 0.0
6.587878787875795 1.0 0.0
6.786363636361617 1.0 0.0
6.984848484846598 1.0 0.0
7.183333333331875 1.0 0.0
7.381818181816625 1.0 0.0
7.580303030301849 1.0 0.0
7.778787878786936 1.0 0.0
7.977272727272114 1.0 0.0
8.175757575757618 1.0 0.0
8.473728813558951 1.0 0.0
8.672457627118133 1.0 0.0
8.871186440676855 1.0 0.0
9.069915254236154 1.0 0.0
9.268644067794812 1.0 0.0
9.467372881354057 1.0 0.0
9.666101694912944 1.0 0.0
9.864830508471961 1.0 0.0
10.06355932203108 1.0 0.0
10.26228813558986 1.0 0.0
10.46101694914916 1.0 0.0
10.65974576270777 1.0 0.0
10.85847457626706 1.0 0.0
11.05720338982589 1.0 0.0
11.25593220338497 1.0 0.0
11.45466101694402 1.0 0.0
11.65338983050287 1.0 0.0
11.85211864406215 1.0 0.0
12.05084745762035 1.0 0.0
12.24957627117938 1.0 0.0
12.44830508473794 1.0 0.0
12.64703389829659 1.0 0.0
12.84576271185557 1.0 0.0
13.04449152541379 1.0 0.0
13.24322033897301 1.0 0.0
13.44194915253121 1.0 0.0
13.6406779660903 1.0 0.0
13.83940677964874 1.0 0.0
14.03813559320751 1.0 0.0
14.23686440676681 1.0 0.0
14.43559322032663 1.0 0.0
14.63432203388679 1.0 0.0
14.8330508474463 1.0 0.0
15.0317796610067 1.0 0.0
15.23050847456608 1.0 0.0
15.42923728812645 1.0 0.0
15.62796610168606 1.0 0.0
15.82669491524602 1.0 0.0
16.02542372880584 1.0 0.0
16.22415254236431 1.0 0.0
16.42288135592496 1.0 0.0
16.62161016948498 1.0 0.0
16.82033898304518 1.0 0.0
17.01906779660567 1.0 0.0
17.2177966101654 1.0 0.0
17.41652542372565 1.0 0.0
17.61525423728425 1.0 0.0
17.81398305084494 1.0 0.0
18.01271186440355 1.0 0.0
18.21144067796387 1.0 0.0
18.41016949152309 1.0 0.0
18.6088983050827 1.0 0.0
18.80762711864282 1.0 0.0
19.00635593220153 1.0 0.0
19.20508474576211 1.0 0.0
19.40381355932072 1.0 0.0
19.60254237288117 1.0 0.0
19.80127118644013 1.0 0.0
8.374364406779554 1.0 0.0
8.573093220338519 1.0 0.0
8.771822033897509 1.0 0.0
8.970550847456504 1.0 0.0
9.169279661015429 1.0 0.0
9.368008474574502 1.0 0.0
9.566737288133496 1.0 0.0
9.765466101692677 1.0 0.0
9.964194915251602 1.0 0.0
10.16292372881015 1.0 0.0
10.36165254236967 1.0 0.0
10.56038135592849 1.0 0.0
10.75911016948728 1.0 0.0
10.95783898304648 1.0 0.0
11.15656779660554 1.0 0.0
11.35529661016447 1.0 0.0
11.55402542372345 1.0 0.0
11.75275423728253 1.0 0.0
11.95148305084111 1.0 0.0
12.15021186439983 1.0 0.0
12.34894067795883 1.0 0.0
12.54766949151722 1.0 0.0
12.74639830507616 1.0 0.0
12.94512711863486 1.0 0.0
13.14385593219357 1.0 0.0
13.34258474575207 1.0 0.0
13.54131355931069 1.0 0.0
13.7400423728695 1.0 0.0
13.93877118642822 1.0 0.0
14.13749999998697 1.0 0.0
14.33622881354686 1.0 0.0
14.53495762710678 1.0 0.0
14.73368644066656 1.0 0.0
14.93241525422655 1.0 0.0
15.13114406778625 1.0 0.0
15.32987288134641 1.0 0.0
15.52860169490635 1.0 0.0
15.7273305084661 1.0 0.0
15.9260593220261 1.0 0.0
16.12478813558534 1.0 0.0
16.32351694914468 1.0 0.0
16.52224576270527 1.0 0.0
16.72097457626511 1.0 0.0
16.91970338982543 1.0 0.0
17.11843220338561 1.0 0.0
17.31716101694539 1.0 0.0
17.51588983050497 1.0 0.0
17.71461864406449 1.0 0.0
17.91334745762401 1.0 0.0
18.11207627118383 1.0 0.0
18.31080508474307 1.0 0.0
18.50953389830311 1.0 0.0
18.70826271186271 1.0 0.0
18.90699152542239 1.0 0.0
19.10572033898203 1.0 0.0
19.30444915254171 1.0 0.0
19.50317796610107 1.0 0.0
19.70190677966065 1.0 0.0
19.90063559322003 1.0 0.0
20.0 0.7999999999999998 0.0
20.0 0.6000000000013869 0.0
20.0 0.4000000000016644 0.0
20.0 0.2000000000008322 0.0
20.0 0.9000000000000369 0.0
20.0 0.7000000000005904 0.0
20.0 0.5000000000017577 0.0
20.0 0.3000000000012483 0.0
20.0 0.1000000000004161 0.0
19.8 0.0 0.0
19.6 0.0 0.0
19.4 0.0 0.0
19.2 0.0 0.0
19.0 0.0 0.0
18.8 0.0 0.0
18.6 0.0 0.0
18.4 0.0 0.0
18.2 0.0 0.0
18.0 0.0 0.0
17.8 0.0 0.0
17.59999999999999 0.0 0.0
17.4 0.0 0.0
17.2 0.0 0.0
16.99999999999999 0.0 0.0
16.79999999999999 0.0 0.0
16.59999999999999 0.0 0.0
16.4 0.0 0.0
16.2 0.0 0.0
15.99999999999999 0.0 0.0
15.79999999999999 0.0 0.0
15.59999999999999 0.0 0.0
15.4 0.0 0.0
15.2 0.0 0.0
15.0 0.0 0.0
14.79999999999999 0.0 0.0
14.59999999999999 0.0 0.0
14.4 0.0 0.0
14.2 0.0 0.0
13.99999999999999 0.0 0.0
13.8 0.0 0.0
13.59999999999999 0.0 0.0
13.4 0.0 0.0
13.2 0.0 0.0
13.0 0.0 0.0
12.79999999999999 0.0 0.0
12.6 0.0 0.0
12.4 0.0 0.0
12.2 0.0 0.0
11.99999999999999 0.0 0.0
11.8 0.0 0.0
11.6 0.0 0.0
11.4 0.0 0.0
11.2 0.0 0.0
11.0 0.0 0.0
10.8 0.0 0.0
10.6 0.0 0.0
10.4 0.0 0.0
10.2 0.0 0.0
9.999999999999998 0.0 0.0
9.799999999999995 0.0 0.0
9.599999999999998 0.0 0.0
9.399999999999997 0.0 0.0
9.199999999999998 0.0 0.0
8.999999999999996 0.0 0.0
8.799999999999997 0.0 0.0
8.599999999999996 0.0 0.0
8.399999999999999 0.0 0.0
8.199999999999996 0.0 0.0
7.999999999999998 0.0 0.0
7.799999999999997 0.0 0.0
7.599999999999998 0.0 0.0
7.399999999999999 0.0 0.0
7.199999999999998 0.0 0.0
6.999999999999995 0.0 0.0
6.799999999999995 0.0 0.0
6.599999999999998 0.0 0.0
6.399999999999997 0.0 0.0
6.199999999999996 0.0 0.0
5.999999999999998 0.0 0.0
5.799999999999999 0.0 0.0
5.599999999999996 0.0 0.0
5.399999999999995 0.0 0.0
5.199999999999996 0.0 0.0
4.999999999999998 0.0 0.0
4.799999999999997 0.0 0.0
4.599999999999998 0.0 0.0
4.399999999999999 0.0 0.0
4.199999999999999 0.0 0.0
3.999999999999996 0.0 0.0
3.799999999999997 0.0 0.0
3.599999999999998 0.0 0.0
3.399999999999999 0.0 0.0
3.199999999999999 0.0 0.0
3.0 0.0 0.0
2.800000000000001 0.0 0.0
2.599999999999998 0.0 0.0
2.399999999999999 0.0 0.0
2.199999999999996 0.0 0.0
1.999999999999996 0.0 0.0
1.800000000000001 0.0 0.0
1.599999999999998 0.0 0.0
1.399999999999999 0.0 0.0
1.200000000000003 0.0 0.0
1.0 0.0 0.0
0.7999999999999972 0.0 0.0
0.5999999999999979 0.0 0.0
0.3999999999999986 0.0 0.0
0.1999999999999993 0.0 0.0
19.90000000000022 0.0 0.0
19.69999999999997 0.0 0.0
19.49999999999987 0.0 0.0
19.30000000000005 0.0 0.0
19.09999999999999 0.0 0.0
18.89999999999987 0.0 0.0
18.7 0.0 0.0
18.49999999999999 0.0 0.0
18.30000000000001 0.0 0.0
18.09999999999987 0.0 0.0
17.90000000000013 0.0 0.0
17.7 0.0 0.0
17.49999999999987 0.0 0.0
17.30000000000025 0.0 0.0
17.10000000000001 0.0 0.0
16.90000000000005 0.0 0.0
16.70000000000003 0.0 0.0
16.50000000000006 0.0 0.0
16.29999999999997 0.0 0.0
16.09999999999999 0.0 0.0
15.89999999999987 0.0 0.0
15.69999999999999 0.0 0.0
15.49999999999999 0.0 0.0
15.3 0.0 0.0
15.10000000000003 0.0 0.0
14.90000000000005 0.0 0.0
14.69999999999992 0.0 0.0
14.49999999999996 0.0 0.0
14.29999999999999 0.0 0.0
14.10000000000008 0.0 0.0
13.89999999999988 0.0 0.0
13.70000000000003 0.0 0.0
13.50000000000004 0.0 0.0
13.29999999999992 0.0 0.0
13.09999999999995 0.0 0.0
12.90000000000016 0.0 0.0
12.7 0.0 0.0
12.49999999999986 0.0 0.0
12.30000000000003 0.0 0.0
12.10000000000016 0.0 0.0
11.90000000000005 0.0 0.0
11.69999999999994 0.0 0.0
11.49999999999993 0.0 0.0
11.30000000000005 0.0 0.0
11.0999999999999 0.0 0.0
10.90000000000004 0.0 0.0
10.69999999999995 0.0 0.0
10.50000000000012 0.0 0.0
10.29999999999999 0.0 0.0
10.09999999999993 0.0 0.0
9.900000000000077 0.0 0.0
9.699999999999969 0.0 0.0
9.499999999999982 0.0 0.0
9.299999999999969 0.0 0.0
9.100000000000108 0.0 0.0
8.899999999999972 0.0 0.0
8.699999999999958 0.0 0.0
8.499999999999998 0.0 0.0
8.30000000000003 0.0 0.0
8.099999999999977 0.0 0.0
7.899999999999974 0.0 0.0
7.700000000000166 0.0 0.0
7.499999999999854 0.0 0.0
7.299999999999997 0.0 0.0
7.100000000000019 0.0 0.0
6.900000000000002 0.0 0.0
6.699999999999974 0.0 0.0
6.500000000000037 0.0 0.0
6.299999999999981 0.0 0.0
6.100000000000014 0.0 0.0
5.899999999999949 0.0 0.0
5.700000000000049 0.0 0.0
5.499999999999956 0.0 0.0
5.300000000000118 0.0 0.0
5.100000000000005 0.0 0.0
4.900000000000109 0.0 0.0
4.699999999999982 0.0 0.0
4.499999999999936 0.0 0.0
4.300000000000137 0.0 0.0
4.100000000000012 0.0 0.0
3.899999999999888 0.0 0.0
3.69999999999974 0.0 0.0
3.500000000000046 0.0 0.0
3.299999999999965 0.0 0.0
3.099999999999817 0.0 0.0
2.900000000000066 0.0 0.0
2.699999999999793 0.0 0.0
2.500000000000064 0.0 0.0
2.299999999999823 0.0 0.0
[...]
POINT_DATA 2790
VECTORS vector double
1.0 0.0 0.0
0.0 0.0 0.0
0.0 0.0 0.0
0.0 0.0 0.0
1.37598306544 0.0 0.0
1.0 0.0 0.0
0.0 0.0 0.0
0.0 0.0 0.0
0.0 0.0 0.0
0.0 0.0 0.0
0.0 0.0 0.0
0.0 0.0 0.0
0.0 0.0 0.0
0.0 0.0 0.0
0.0 0.0 0.0
0.0 0.0 0.0
0.0 0.0 0.0
0.0 0.0 0.0
0.0 0.0 0.0
0.0 0.0 0.0
0.0 0.0 0.0
0.0 0.0 0.0
0.0 0.0 0.0
0.0 0.0 0.0
0.0 0.0 0.0
0.0 0.0 0.0
0.0 0.0 0.0
0.0 0.0 0.0
0.0 0.0 0.0
0.0 0.0 0.0
0.0 0.0 0.0
0.0 0.0 0.0
0.0 0.0 0.0
0.0 0.0 0.0
0.0 0.0 0.0
0.0 0.0 0.0
0.0 0.0 0.0
0.0 0.0 0.0
0.0 0.0 0.0
0.0 0.0 0.0
0.0 0.0 0.0
0.0 0.0 0.0
0.0 0.0 0.0
0.0 0.0 0.0
0.0 0.0 0.0
0.0 0.0 0.0
0.0 0.0 0.0
0.0 0.0 0.0
0.0 0.0 0.0
0.0 0.0 0.0
0.0 0.0 0.0
0.0 0.0 0.0
0.0 0.0 0.0
0.0 0.0 0.0
0.0 0.0 0.0
0.0 0.0 0.0
0.0 0.0 0.0
0.0 0.0 0.0
0.0 0.0 0.0
0.0 0.0 0.0
0.0 0.0 0.0
0.0 0.0 0.0
0.0 0.0 0.0
0.0 0.0 0.0
0.0 0.0 0.0
0.0 0.0 0.0
0.0 0.0 0.0
0.0 0.0 0.0
0.0 0.0 0.0
0.0 0.0 0.0
0.0 0.0 0.0
0.0 0.0 0.0
0.0 0.0 0.0
0.0 0.0 0.0
0.0 0.0 0.0
0.0 0.0 0.0
0.0 0.0 0.0
0.0 0.0 0.0
0.0 0.0 0.0
0.0 0.0 0.0
0.0 0.0 0.0
0.0 0.0 0.0
0.0 0.0 0.0
0.0 0.0 0.0
0.0 0.0 0.0
0.0 0.0 0.0
0.0 0.0 0.0
0.0 0.0 0.0
0.0 0.0 0.0
0.0 0.0 0.0
0.0 0.0 0.0
0.0 0.0 0.0
0.0 0.0 0.0
0.0 0.0 0.0
0.0 0.0 0.0
0.0 0.0 0.0
0.0 0.0 0.0
0.0 0.0 0.0
0.0 0.0 0.0
0.0 0.0 0.0
0.0 0.0 0.0
0.0 0.0 0.0
0.0 0.0 0.0
0.0 0.0 0.0
0.0 0.0 0.0
0.0 0.0 0.0
0.0 0.0 0.0
0.0 0.0 0.0
0.0 0.0 0.0
0.0 0.0 0.0
0.0 0.0 0.0
0.0 0.0 0.0
0.0 0.0 0.0
0.0 0.0 0.0
0.0 0.0 0.0
0.0 0.0 0.0
0.0 0.0 0.0
0.0 0.0 0.0
0.0 0.0 0.0
0.0 0.0 0.0
0.0 0.0 0.0
0.0 0.0 0.0
0.0 0.0 0.0
0.0 0.0 0.0
0.0 0.0 0.0
0.0 0.0 0.0
0.0 0.0 0.0
0.0 0.0 0.0
0.0 0.0 0.0
0.0 0.0 0.0
0.0 0.0 0.0
0.0 0.0 0.0
0.0 0.0 0.0
0.0 0.0 0.0
0.0 0.0 0.0
0.0 0.0 0.0
0.0 0.0 0.0
0.0 0.0 0.0
0.0 0.0 0.0
0.0 0.0 0.0
0.0 0.0 0.0
0.0 0.0 0.0
0.0 0.0 0.0
0.0 0.0 0.0
0.0 0.0 0.0
0.0 0.0 0.0
0.0 0.0 0.0
0.0 0.0 0.0
0.0 0.0 0.0
0.0 0.0 0.0
0.0 0.0 0.0
0.0 0.0 0.0
0.0 0.0 0.0
0.0 0.0 0.0
0.0 0.0 0.0
0.0 0.0 0.0
0.0 0.0 0.0
0.0 0.0 0.0
0.0 0.0 0.0
0.0 0.0 0.0
0.0 0.0 0.0
0.0 0.0 0.0
0.0 0.0 0.0
0.0 0.0 0.0
0.0 0.0 0.0
0.0 0.0 0.0
0.0 0.0 0.0
0.0 0.0 0.0
0.0 0.0 0.0
0.0 0.0 0.0
0.0 0.0 0.0
0.0 0.0 0.0
0.0 0.0 0.0
0.0 0.0 0.0
0.0 0.0 0.0
0.0 0.0 0.0
0.0 0.0 0.0
0.0 0.0 0.0
0.0 0.0 0.0
0.0 0.0 0.0
0.0 0.0 0.0
0.0 0.0 0.0
0.0 0.0 0.0
0.0 0.0 0.0
0.0 0.0 0.0
0.0 0.0 0.0
0.0 0.0 0.0
0.0 0.0 0.0
0.0 0.0 0.0
0.0 0.0 0.0
0.0 0.0 0.0
0.0 0.0 0.0
0.0 0.0 0.0
0.0 0.0 0.0
0.0 0.0 0.0
0.0 0.0 0.0
0.0 0.0 0.0
0.0 0.0 0.0
0.0 0.0 0.0
0.0 0.0 0.0
0.0 0.0 0.0
0.0 0.0 0.0
0.0 0.0 0.0
0.0 0.0 0.0
0.0 0.0 0.0
0.630328978713 0.000306015199575 0.0
1.04819052964 -5.86873363006e-05 0.0
1.26553369321 -0.000454453231734 0.0
1.34920888501 -0.000389247980199 0.0
0.323466281448 0.000281576533788 0.0
0.848301065348 0.00225723763713 0.0
1.16399746568 0.00023748240015 0.0
1.31000658468 -0.000749642724257 0.0
1.36152787014 -0.000236802241399 0.0
1.37498439398 0.0 0.0
1.37498732715 0.0 0.0
1.37507869037 0.0 0.0
1.37522202718 0.0 0.0
1.37452072606 0.0 0.0
1.37548856059 0.0 0.0
1.37559198458 0.0 0.0
1.37494542317 0.0 0.0
1.37535340134 0.0 0.0
1.37529101715 0.0 0.0
1.37462763002 0.0 0.0
1.37504744739 0.0 0.0
1.37497986914 0.0 0.0
1.3743123259 0.0 0.0
1.37310315894 0.0 0.0
1.37310985685 0.0 0.0
1.37420232348 0.0 0.0
1.37329320161 0.0 0.0
1.37360616209 0.0 0.0
1.37505727465 0.0 0.0
1.37436146051 0.0 0.0
1.37476274071 0.0 0.0
1.37615175234 0.0 0.0
1.37530301798 0.0 0.0
1.37546873174 0.0 0.0
1.37661020063 0.0 0.0
1.37548755149 0.0 0.0
1.37535256988 0.0 0.0
1.37618602182 0.0 0.0
1.37478006248 0.0 0.0
1.37436345786 0.0 0.0
1.37492681401 0.0 0.0
1.37337715752 0.0 0.0
1.37301470936 0.0 0.0
1.37392001392 0.0 0.0
1.37295733372 0.0 0.0
1.37332167036 0.0 0.0
1.37489655421 0.0 0.0
1.37406885217 0.0 0.0
1.3743097649 0.0 0.0
1.37618936622 0.0 0.0
1.3757711779 0.0 0.0
1.3759677357 0.0 0.0
1.37768218361 0.0 0.0
1.37699031962 0.0 0.0
1.37684518262 0.0 0.0
1.37813812693 0.0 0.0
1.37699334795 0.0 0.0
1.37640637417 0.0 0.0
1.37724819634 0.0 0.0
1.37594636206 0.0 0.0
1.37527563458 0.0 0.0
1.37586906605 0.0 0.0
1.37759644672 0.0 0.0
1.37667198364 0.0 0.0
1.37520546889 0.0 0.0
1.37448234253 0.0 0.0
1.37373794709 0.0 0.0
1.37023254801 0.0 0.0
1.36570862988 0.0 0.0
1.36142721191 0.0 0.0
1.35520194572 0.0 0.0
1.34973102693 0.0 0.0
1.34660402641 0.0 0.0
1.34211831494 0.0 0.0
1.33836174744 0.0 0.0
1.3361349692 0.0 0.0
1.3315839215 0.0 0.0
1.3271665196 0.0 0.0
1.3237143586 0.0 0.0
1.32044850726 0.0 0.0
1.31390648057 0.0 0.0
1.30842511012 0.0 0.0
1.30186017661 0.0 0.0
1.29428735659 0.0 0.0
1.28777382498 0.0 0.0
1.27934321733 0.0 0.0
1.27096444817 0.0 0.0
1.26318719727 0.0 0.0
1.25542966704 0.0 0.0
1.24648187776 0.0 0.0
1.23781668957 0.0 0.0
1.22904103349 0.0 0.0
1.21949433674 0.0 0.0
1.2099483025 0.0 0.0
1.20005268185 0.0 0.0
1.18974618702 0.0 0.0
1.17903814359 0.0 0.0
1.16777918951 0.0 0.0
1.1563126083 0.0 0.0
1.14387097695 0.0 0.0
1.13031456988 0.0 0.0
1.11633237993 0.0 0.0
1.10032205493 0.0 0.0
1.08213042654 0.0 0.0
1.06303024397 0.0 0.0
1.04097927129 0.0 0.0
1.0198497688 0.0 0.0
1.0041372013 0.0 0.0
1.37557323101 0.0 0.0
1.37468798754 0.0 0.0
1.37611024599 0.0 0.0
1.37455458641 0.0 0.0
1.37457710483 0.0 0.0
1.37491026186 0.0 0.0
1.37642976139 0.0 0.0
1.374813135 0.0 0.0
1.37464402153 0.0 0.0
1.37610209337 0.0 0.0
1.37447619137 0.0 0.0
1.3743003981 0.0 0.0
1.37580291252 0.0 0.0
1.37417547376 0.0 0.0
1.37422941564 0.0 0.0
1.37298612395 0.0 0.0
1.37424042166 0.0 0.0
1.37436309829 0.0 0.0
1.3733228554 0.0 0.0
1.37496095343 0.0 0.0
1.3753665173 0.0 0.0
1.37447730866 0.0 0.0
1.37609644662 0.0 0.0
1.37634860649 0.0 0.0
1.37526105931 0.0 0.0
1.37664259302 0.0 0.0
1.37661382565 0.0 0.0
1.37524196488 0.0 0.0
1.37632076798 0.0 0.0
1.37600489825 0.0 0.0
1.37436367331 0.0 0.0
1.37516342435 0.0 0.0
1.37466414825 0.0 0.0
1.37298828919 0.0 0.0
1.37400496078 0.0 0.0
1.37406026603 0.0 0.0
1.37308976351 0.0 0.0
1.37473088909 0.0 0.0
1.37525562777 0.0 0.0
1.37438580908 0.0 0.0
1.3758195517 0.0 0.0
1.37696549866 0.0 0.0
1.37605735373 0.0 0.0
1.37736124291 0.0 0.0
1.37826672737 0.0 0.0
1.37703818738 0.0 0.0
1.37794063326 0.0 0.0
1.37839450504 0.0 0.0
1.37676694974 0.0 0.0
1.37719355935 0.0 0.0
1.37740224879 0.0 0.0
1.37570851369 0.0 0.0
1.37618013401 0.0 0.0
1.37615430431 0.0 0.0
1.37704798847 0.0 0.0
1.37661189331 0.0 0.0
1.37491217818 0.0 0.0
1.37452944211 0.0 0.0
1.37242427022 0.0 0.0
1.36763546541 0.0 0.0
1.36341469856 0.0 0.0
1.3583061506 0.0 0.0
1.35166730584 0.0 0.0
1.34791316085 0.0 0.0
1.34464976714 0.0 0.0
1.33981182356 0.0 0.0
1.33720199618 0.0 0.0
1.33418021823 0.0 0.0
1.32893722395 0.0 0.0
1.32546237274 0.0 0.0
1.32121049924 0.0 0.0
1.31647101287 0.0 0.0
1.31072267229 0.0 0.0
1.30464641007 0.0 0.0
1.29762202776 0.0 0.0
1.29053028317 0.0 0.0
1.28244624372 0.0 0.0
1.27480375479 0.0 0.0
1.26662677177 0.0 0.0
1.25918162843 0.0 0.0
1.25048279432 0.0 0.0
1.24178669492 0.0 0.0
1.23325765558 0.0 0.0
1.22390214081 0.0 0.0
1.21451940978 0.0 0.0
1.2048321929 0.0 0.0
1.19467974083 0.0 0.0
1.18436564524 0.0 0.0
1.17326945059 0.0 0.0
1.16198921935 0.0 0.0
1.15024721287 0.0 0.0
1.13699509999 0.0 0.0
1.12343869755 0.0 0.0
1.10865645605 0.0 0.0
1.09116315917 0.0 0.0
1.07282892336 0.0 0.0
1.05258199645 0.0 0.0
1.0305485437 0.0 0.0
1.01189242716 0.0 0.0
0.998990698415 0.0 0.0
1.0 0.0 0.0
1.0 0.0 0.0
1.0 0.0 0.0
1.0 0.0 0.0
1.0 0.0 0.0
1.0 0.0 0.0
1.0 0.0 0.0
1.0 0.0 0.0
1.0 0.0 0.0
1.16513691161 -0.0712114219665 0.0
1.22334134397 -0.0467060806308 0.0
1.22839852392 -0.031437558144 0.0
1.15739321001 -0.000293398929582 0.0
1.1862008981 -0.000260051372803 0.0
1.18613826572 -0.000181500213713 0.0
1.18366038892 -0.000130755021485 0.0
1.18153183855 -9.34406844067e-05 0.0
1.18137286882 2.29081665936e-06 0.0
1.18058054285 0.000227112709319 0.0
1.17979923299 0.000417683815617 0.0
1.17962159959 0.000225626250232 0.0
1.17992906559 -0.000444742671167 0.0
1.1800678629 -0.000822503833488 0.0
1.17963066315 -0.000409399469413 0.0
1.13941711651 0.000382770685394 0.0
1.1381494676 0.00109854067599 0.0
1.13758973398 0.000908273304764 0.0
1.13772807654 -3.99600931749e-05 0.0
1.169755264 -0.000768997430494 0.0
1.22228222587 -0.0231025423077 0.0
1.14420744553 -0.0020256647935 0.0
1.1379657879 -0.000458389184298 0.0
1.20965123019 -0.0176830225075 0.0
1.14953143614 -0.0024331582292 0.0
1.16787924984 -0.000213006908629 0.0
1.19674753926 -0.0139132715975 0.0
1.15460700847 -0.00257044669239 0.0
1.18475150554 -0.011096992396 0.0
1.1878733634 -0.00420737319187 0.0
1.19716000598 -0.0098161903311 0.0
1.16918842135 -0.000258782473789 0.0
1.17536927356 -0.00828057379896 0.0
0.982905325506 -0.00115371446972 0.0
1.20017663821 -0.138858388579 0.0
1.29289917714 -0.010209119958 0.0
1.28118687947 -0.012360321155 0.0
1.30716443956 -0.00444428934722 0.0
1.2665968933 -0.0147079310514 0.0
1.30578664453 -0.00332721945534 0.0
1.21647331871 -0.0209306537792 0.0
1.24590299869 -0.0175160745726 0.0
1.30633873976 -0.0035648173016 0.0
1.30414183113 -0.00300686605646 0.0
1.30142542956 -0.000517029700069 0.0
1.30240924216 -0.000462066391875 0.0
1.30237847245 0.000157015732605 0.0
1.30132030123 0.000859910995272 0.0
1.30030987954 0.000858265836051 0.0
1.29501941646 0.000264704688794 0.0
1.29616206351 -0.000451778932015 0.0
1.29724693515 -0.000685343772457 0.0
1.2103780468 -0.0525183659679 0.0
1.29754262422 -0.000229794086364 0.0
1.29707381023 0.000260825438925 0.0
1.29667698442 0.000389170752703 0.0
1.17515718037 -0.025426820788 0.0
1.29689124031 0.000253518700116 0.0
1.14231489339 -0.0290455099083 0.0
1.12679235883 -0.0334301229357 0.0
1.29641419223 2.33263676535e-05 0.0
1.29665056737 -0.000171098072073 0.0
0.940745281569 -0.000322207569522 0.0
1.29665557884 -8.57296504726e-05 0.0
0.940395293818 -0.000383372427292 0.0
0.979666000558 -0.0068351541669 0.0
0.998518726976 -0.00849982663995 0.0
0.947481100292 -0.00118750945998 0.0
1.09095565951 -0.0197495681666 0.0
1.02202104013 -0.0109782580643 0.0
0.940386425803 -0.00153928277897 0.0
1.05195343258 -0.0145790072246 0.0
0.934865187099 -0.00145090006293 0.0
0.930357141509 -0.000452078828032 0.0
0.939422631245 -0.000167015980394 0.0
0.938388355156 -0.000487140934241 0.0
0.9381067825 0.00024851042461 0.0
0.939087932699 0.000730923382935 0.0
0.940487905703 0.000369022703474 0.0
0.941064052321 -0.000136283348567 0.0
0.940198932832 -0.000594621063766 0.0
0.938984149578 -0.00052777473961 0.0
0.938287472236 9.11282707602e-06 0.0
0.938574827524 0.00029298271715 0.0
0.939229444524 0.000153230505744 0.0
1.29891253433 -0.000115892530451 0.0
0.939596833782 -1.18387041574e-05 0.0
0.939570485598 -0.000111257172197 0.0
0.939513160652 -6.77687355776e-05 0.0
0.93938672314 -1.08255011096e-06 0.0
1.30774594612 -7.87746496373e-05 0.0
1.03360882182 -0.0344993456634 0.0
1.30926453484 6.55885689185e-05 0.0
1.30147360743 -0.00028092114261 0.0
1.3101003735 -0.00647568624327 0.0
1.30307694466 -0.00859293590786 0.0
1.31126093967 -0.0011690310947 0.0
0.874201051017 -0.00135779598557 0.0
0.919311961548 3.82399203024e-05 0.0
0.906027099374 -0.00218295139556 0.0
0.912696680272 -0.00720050977981 0.0
1.18028887065 -0.0769715216041 0.0
1.04255826081 -0.0281809347287 0.0
1.31125440754 -0.000452417035407 0.0
1.33322588962 0.000619865779385 0.0
1.33438782985 0.000703957323653 0.0
1.13720155024 -0.0209564819128 0.0
1.32868854419 -4.60005151092e-05 0.0
1.07405504624 -0.0279285906108 0.0
1.3356269508 0.000316647237758 0.0
1.33003758795 -0.000634340614217 0.0
1.33110357285 -0.000540607686396 0.0
1.33291141024 -0.000306705641283 0.0
0.955069136106 -0.0158555846444 0.0
1.33126966132 -9.81498441783e-05 0.0
1.33204866739 -0.000416080448571 0.0
1.33069436262 0.000227213634457 0.0
1.330295929 0.000281972259534 0.0
1.1832878151 -0.0169032655347 0.0
1.33046269365 0.00012236997892 0.0
1.32643856845 -7.76481605457e-05 0.0
1.34557002822 -6.8168568357e-05 0.0
0.716898000588 7.91998304273e-05 0.0
1.33299950084 -0.00257085436354 0.0
1.34448630226 -0.00013830572434 0.0
0.734119765141 8.5290095271e-05 0.0
0.690204496759 0.000716980339201 0.0
1.34454490191 -0.000119456869172 0.0
0.715420382723 0.000467220129383 0.0
1.33359853886 -0.00364781692492 0.0
1.21967440286 -0.0143235773501 0.0
0.715117141363 0.000463952964828 0.0
0.714990856287 0.000504325512742 0.0
0.714678898044 0.000568652235088 0.0
0.713966089052 0.000672941796681 0.0
1.33043659369 -0.00293533060819 0.0
1.24948677067 -0.0123717064197 0.0
0.712888054442 0.000671536335486 0.0
0.712405422962 0.000394241550638 0.0
0.713229225349 0.000192305684345 0.0
0.714263698037 0.000361028353989 0.0
0.714753018187 0.000398850657117 0.0
1.32631810335 -0.00348169790259 0.0
1.27306984932 -0.0107117414316 0.0
0.713620728858 0.000709021035035 0.0
0.711525127764 0.000692124973182 0.0
0.550315185297 0.00038412412636 0.0
0.710316477293 0.000229627883611 0.0
0.846979032161 -0.00849144039247 0.0
0.707723975333 5.67145692282e-05 0.0
0.808304163533 -0.00598160215904 0.0
0.711056463449 -0.000238235643024 0.0
0.710436014171 4.32152939675e-05 0.0
0.779770041327 -0.004448498168 0.0
0.714520562564 2.07433638955e-05 0.0
0.757928357571 -0.00332024240575 0.0
0.555751680848 0.000815885952144 0.0
0.637025353132 -0.00223391378133 0.0
0.604115762906 0.000585500425826 0.0
1.32004127664 -0.00516990043179 0.0
1.29194103909 -0.00925472032584 0.0
1.30448929611 -0.00818278004713 0.0
1.3241089433 -0.00479618506246 0.0
1.33182256171 -0.000397784004359 0.0
1.33436726811 -0.00024199344163 0.0
0.68623262824 -0.00186946980615 0.0
0.869532758373 -0.00690840777304 0.0
1.34303565554 -0.00020121807132 0.0
1.04037917721 -0.0556974805953 0.0
1.17907302322 -0.000543910634145 0.0
1.22846165493 -0.000448031259542 0.0
1.04136435721 -0.018248041229 0.0
0.603086790219 0.000247687884324 0.0
1.10232954817 -0.0715470058186 0.0
1.03784554799 -0.0619989095905 0.0
0.655497204743 -0.00194124586381 0.0
1.35200937284 0.00029621817071 0.0
1.35368299541 0.000353041063161 0.0
1.35156203757 7.39852773968e-05 0.0
1.35532217266 0.000139411797436 0.0
1.2751253003 -0.291289036888 0.0
1.3556848579 -0.000311396029468 0.0
1.35275121182 -0.000328293248938 0.0
1.35497589531 -0.000455276972949 0.0
1.3538103959 -0.000185491471262 0.0
1.35391445303 9.32318547297e-05 0.0
1.19521549148 -0.00991664549325 0.0
1.35036301124 -0.00353778862292 0.0
1.10747347551 -0.0153359410493 0.0
1.34445324929 -0.00268387809393 0.0
1.22911528932 -0.00875792713192 0.0
1.35324522285 0.000292489757845 0.0
1.3386039518 -0.00280266177092 0.0
1.25783687578 -0.00771432109433 0.0
1.15543747698 -0.0116836700293 0.0
1.28204355383 -0.0067729130172 0.0
1.35258195106 0.000342910120949 0.0
1.35206175102 0.000183922578273 0.0
1.35192656073 1.8076800543e-05 0.0
1.35123735819 0.00038709857106 0.0
1.35183033358 0.000301784809303 0.0
1.35233744759 0.000208870137432 0.0
1.17485520799 -0.000266135536949 0.0
0.762156516141 -0.0102109923886 0.0
0.816673228238 -0.0167169988919 0.0
0.875945775335 -0.0227359005827 0.0
0.731341360144 -0.00876993803299 0.0
0.569790813128 -0.000383995444604 0.0
0.569759806352 -0.000348446396929 0.0
0.569843522484 -0.000335321328072 0.0
1.20990650365 -0.00612851996187 0.0
0.569862862178 -0.000302197788333 0.0
0.569620005199 -0.000238069517553 0.0
0.568962137232 -0.000192267133229 0.0
1.18222709192 0.000505079369763 0.0
1.21363151314 -0.00963345791356 0.0
0.568426292581 -0.000340718270598 0.0
1.18242215396 0.000243738335094 0.0
0.569023074261 -0.000543314433631 0.0
0.570363939141 -0.000553313321053 0.0
0.570838804852 0.000213045540681 0.0
0.570470100424 0.000422840773387 0.0
1.17275180062 0.00030056951486 0.0
0.5690205984 0.000516320644965 0.0
1.17258040253 0.000815681003483 0.0
0.578245274236 -0.000196643149495 0.0
0.567718993717 0.000247508768387 0.0
1.17230362144 0.000775280392639 0.0
0.58040991246 -0.000781481765822 0.0
1.1720579234 0.000991397348938 0.0
0.577254601845 -0.000982742054713 0.0
0.568025718823 -0.000105282666785 0.0
1.1712716188 0.00121298717173 0.0
0.577905996978 -0.000936918622936 0.0
0.554065446593 0.000365811238332 0.0
1.17089088589 0.00119924339894 0.0
0.701499950834 -0.00817189266165 0.0
1.1711179675 0.000655780896707 0.0
1.17139735083 0.000105096870825 0.0
0.568348048425 0.000238308313732 0.0
1.17119949763 0.000286788004309 0.0
1.16819879865 0.000702671158112 0.0
1.22972850501 -0.0263268199211 0.0
0.664653803709 -0.00549595033113 0.0
0.570876491434 -0.000420264623917 0.0
1.16548078721 0.00160814711137 0.0
1.16497406346 0.00172593659761 0.0
0.638264251069 -0.00423614343729 0.0
0.574191503128 -0.00042978226386 0.0
1.16526436042 0.000912031303774 0.0
0.618434109923 -0.00336107753639 0.0
0.552673867851 -3.11706429065e-05 0.0
1.16559108047 0.000185283541277 0.0
1.16360535513 0.000214848224006 0.0
0.589381295441 -0.00227898681886 0.0
1.16671289083 -0.00080591166338 0.0
1.17113740681 -0.00124223304446 0.0
1.17686355353 -0.0019758022813 0.0
1.22544782182 -0.0204795595903 0.0
1.1814635534 -0.00197844718356 0.0
1.21808223237 -0.0163390384203 0.0
1.18403006187 -0.00289025717907 0.0
1.20999053941 -0.013232904575 0.0
1.19915094952 -0.0107236878503 0.0
1.22138060886 -0.0373340581794 0.0
1.19874250711 -0.0496667805746 0.0
1.18241178049 -0.0536944599502 0.0
1.19699710294 -0.00939866591422 0.0
1.22519685262 -0.0345589508978 0.0
1.22735812723 -0.0268022548021 0.0
1.20561206227 -0.011945635612 0.0
1.17661204316 -0.00407353164734 0.0
1.21496625571 -0.0152322892118 0.0
1.17105597281 -0.00357902055899 0.0
1.22334142311 -0.0197542070497 0.0
1.16650736861 -0.00349310762261 0.0
0.613961741615 -0.00203712546952 0.0
1.16647956098 -0.00169729364771 0.0
0.633277870136 -0.0030032656855 0.0
0.580683534165 -0.000832017570904 0.0
0.704960162662 -0.0075583730375 0.0
1.15958348828 -0.00142251705534 0.0
0.655447712831 -0.00391911449595 0.0
0.582205760771 -0.00115085899202 0.0
1.15988495277 -0.00136452115367 0.0
1.15961749875 -0.000434116835566 0.0
0.685231155325 -0.00526024254148 0.0
0.579093430147 -0.00107339822099 0.0
1.15966341985 0.000134930959703 0.0
1.35090499948 -0.000443373211919 0.0
1.16055638303 -0.000284100095045 0.0
1.17197636614 -0.000814890598968 0.0
0.553878034533 0.000594115689576 0.0
1.17309433537 -0.0014256085535 0.0
1.17318940955 -0.00133456298059 0.0
1.17294423736 -0.0006827261959 0.0
1.1729276594 -0.000298888525736 0.0
1.17356024455 -0.000412509934517 0.0
1.17442752446 -0.00064500582437 0.0
1.17454343526 -0.000915391510435 0.0
1.17630784827 -0.000399383647845 0.0
1.1752332201 -0.000412136394137 0.0
1.1757178152 -0.000693621639186 0.0
1.17337099749 -0.000946591976844 0.0
1.35360281231 -0.00186664525668 0.0
1.35165408412 -0.000376819213759 0.0
0.577430454198 -0.000995955596077 0.0
0.57174869923 -0.00101997817725 0.0
0.571985244332 -0.000667242213603 0.0
0.573585066416 -0.000537346037092 0.0
0.574707959249 -0.000722192948251 0.0
1.35165701469 -2.27230128946e-05 0.0
0.574949666407 -0.000443054604591 0.0
0.573990995261 -0.00073434188867 0.0
0.572753436343 -0.000656579081266 0.0
0.572607756982 -0.000439733464021 0.0
0.57332890627 -0.000373493933737 0.0
0.573870206915 -0.000440634505993 0.0
1.35201573497 0.000142459523445 0.0
0.57402037111 -0.000488461000015 0.0
0.573972152167 -0.000516022637116 0.0
0.573949130681 -0.00051860286941 0.0
0.577688032258 5.49067042384e-05 0.0
1.35247312614 0.000169582401899 0.0
1.35319285468 3.37547491198e-05 0.0
1.30890886034 -0.00639695807125 0.0
1.3534518189 -0.00023189360926 0.0
1.32662811347 -0.00374861429208 0.0
0.982683869896 -0.000326503888538 0.0
1.35271033641 -0.000480323660663 0.0
1.00674277631 -0.0136320014944 0.0
1.08361110565 -0.017487920811 0.0
1.35099979883 -0.000435748297946 0.0
1.35137567452 -0.000305959352678 0.0
1.21401064824 -0.0977640316452 0.0
1.35082136886 0.00021587113959 0.0
1.35737268626 0.000608002316179 0.0
1.35086100976 0.000208477572504 0.0
1.35907696666 0.000537558376926 0.0
1.36008550386 0.000225635113884 0.0
1.35085891499 -0.00028311813937 0.0
1.35938604859 -4.62468676314e-05 0.0
1.35833695214 1.98480942572e-05 0.0
1.13426419776 -0.0104772772138 0.0
1.17612349088 -0.00875958885105 0.0
1.35463189615 -0.00250008604671 0.0
1.33403372283 -0.00236980952257 0.0
1.29059991327 -0.00537854216653 0.0
1.34798956529 -0.00225612117506 0.0
1.21161126204 -0.00771890942127 0.0