# vtk DataFile Version 2.0
2D Simulation Python
ASCII
DATASET UNSTRUCTURED_GRID
FIELD FieldData 1
NODES 1 2 int
2790 1289

POINTS 2790 double
0.0 1.0 0.0
1.725 1.0 0.0
8.275 1.0 0.0
20.0 1.0 0.0
20.0 0.0 0.0
0.0 0.0 0.0
0.1916666666663293 1.0 0.0
0.3833333333324708 1.0 0.0
0.574999999998553 1.0 0.0
0.7666666666645966 1.0 0.0
0.9583333333312576 1.0 0.0
1.149999999998384 1.0 0.0
1.341666666665662 1.0 0.0
1.533333333332819 1.0 0.0
0.0958333333331406 1.0 0.0
0.2874999999994247 1.0 0.0
0.4791666666655395 1.0 0.0
0.6708333333315728 1.0 0.0
0.8624999999976626 1.0 0.0
1.054166666664886 1.0 0.0
1.245833333332057 1.0 0.0
1.437499999999343 1.0 0.0
1.629166666666455 1.0 0.0
1.92348484848444 1.0 0.0
2.121969696968978 1.0 0.0
2.320454545453434 1.0 0.0
2.518939393937826 1.0 0.0
2.717424242422235 1.0 0.0
2.915909090906411 1.0 0.0
3.1143939393908 1.0 0.0
3.312878787875129 1.0 0.0
3.511363636359531 1.0 0.0
3.709848484843827 1.0 0.0
3.90833333332816 1.0 0.0
4.106818181812215 1.0 0.0
4.305303030296804 1.0 0.0
4.503787878781365 1.0 0.0
4.702272727265711 1.0 0.0
4.900757575750005 1.0 0.0
5.099242424235156 1.0 0.0
5.297727272720327 1.0 0.0
5.496212121205663 1.0 0.0
5.694696969690998 1.0 0.0
5.89318181817668 1.0 0.0
6.09166666666213 1.0 0.0
6.290151515147423 1.0 0.0
6.488636363633031 1.0 0.0
6.687121212118713 1.0 0.0
6.885606060604342 1.0 0.0
7.084090909089381 1.0 0.0
7.282575757574369 1.0 0.0
7.481060606059355 1.0 0.0
7.679545454544343 1.0 0.0
7.878030303029329 1.0 0.0
8.076515151514705 1.0 0.0
1.824242424242199 1.0 0.0
2.022727272726695 1.0 0.0
2.221212121211181 1.0 0.0
2.41969696969563 1.0 0.0
2.618181818180092 1.0 0.0
2.816666666664316 1.0 0.0
3.015151515148624 1.0 0.0
3.213636363633039 1.0 0.0
3.412121212117267 1.0 0.0
3.610606060601583 1.0 0.0
3.809090909085975 1.0 0.0
4.007575757570153 1.0 0.0
4.206060606054539 1.0 0.0
4.404545454539001 1.0 0.0
4.603030303023853 1.0 0.0
4.801515151507715 1.0 0.0
4.999999999992074 1.0 0.0
5.198484848477777 1.0 0.0
5.396969696963081 1.0 0.0
5.595454545448261 1.0 0.0
5.793939393933949 1.0 0.0
5.992424242419331 1.0 0.0
6.190909090904785 1.0 0.0
6.389393939390224 1.0 0.0
6.587878787875795 1.0 0.0
6.786363636361617 1.0 0.0
6.984848484846598 1.0 0.0
7.183333333331875 1.0 0.0
7.381818181816625 1.0 0.0
7.580303030301849 1.0 0.0
7.778787878786936 1.0 0.0
7.977272727272114 1.0 0.0
8.175757575757618 1.0 0.0
8.473728813558951 1.0 0.0
8.672457627118133 1.0 0.0
8.871186440676855 1.0 0.0
9.069915254236154 1.0 0.0
9.268644067794812 1.0 0.0
9.467372881354057 1.0 0.0
9.666101694912944 1.0 0.0
9.864830508471961 1.0 0.0
10.06355932203108 1.0 0.0
10.26228813558986 1.0 0.0
10.46101694914916 1.0 0.0
10.65974576270777 1.0 0.0
10.85847457626706 1.0 0.0
11.05720338982589 1.0 0.0
11.25593220338497 1.0 0.0
11.45466101694402 1.0 0.0
11.65338983050287 1.0 0.0
11.85211864406215 1.0 0.0
12.05084745762035 1.0 0.0
12.24957627117938 1.0 0.0
12.44830508473794 1.0 0.0
12.64703389829659 1.0 0.0
12.84576271185557 1.0 0.0
13.04449152541379 1.0 0.0
13.24322033897301 1.0 0.0
13.44194915253121 1.0 0.0
13.6406779660903 1.0 0.0
13.83940677964874 1.0 0.0
14.03813559320751 1.0 0.0
14.23686440676681 1.0 0.0
14.43559322032663 1.0 0.0
14.63432203388679 1.0 0.0
14.8330508474463 1.0 0.0
15.0317796610067 1.0 0.0
15.23050847456608 1.0 0.0
15.42923728812645 1.0 0.0
15.62796610168606 1.0 0.0
15.82669491524602 1.0 0.0
16.02542372880584 1.0 0.0
16.22415254236431 1.0 0.0
16.42288135592496 1.0 0.0
16.62161016948498 1.0 0.0
16.82033898304518 1.0 0.0
17.01906779660567 1.0 0.0
17.2177966101654 1.0 0.0
17.41652542372565 1.0 0.0
17.61525423728425 1.0 0.0
17.81398305084494 1.0 0.0
18.01271186440355 1.0 0.0
18.21144067796387 1.0 0.0
18.41016949152309 1.0 0.0
18.6088983050827 1.0 0.0
18.80762711864282 1.0 0.0
19.00635593220153 1.0 0.0
19.20508474576211 1.0 0.0
19.40381355932072 1.0 0.0
19.60254237288117 1.0 0.0
19.80127118644013 1.0 0.0
8.374364406779554 1.0 0.0
8.573093220338519 1.0 0.0
8.771822033897509 1.0 0.0
8.970550847456504 1.0 0.0
9.169279661015429 1.0 0.0
9.368008474574502 1.0 0.0
9.566737288133496 1.0 0.0
9.765466101692677 1.0 0.0
9.964194915251602 1.0 0.0
10.16292372881015 1.0 0.0
10.36165254236967 1.0 0.0
10.56038135592849 1.0 0.0
10.75911016948728 1.0 0.0
10.95783898304648 1.0 0.0
11.15656779660554 1.0 0.0
11.35529661016447 1.0 0.0
11.55402542372345 1.0 0.0
11.75275423728253 1.0 0.0
11.95148305084111 1.0 0.0
12.15021186439983 1.0 0.0
12.34894067795883 1.0 0.0
12.54766949151722 1.0 0.0
12.74639830507616 1.0 0.0
12.94512711863486 1.0 0.0
13.14385593219357 1.0 0.0
13.34258474575207 1.0 0.0
13.54131355931069 1.0 0.0
13.7400423728695 1.0 0.0
13.93877118642822 1.0 0.0
14.13749999998697 1.0 0.0
14.33622881354686 1.0 0.0
14.53495762710678 1.0 0.0
14.73368644066656 1.0 0.0
14.93241525422655 1.0 0.0
15.13114406778625 1.0 0.0
15.32987288134641 1.0 0.0
15.52860169490635 1.0 0.0
15.7273305084661 1.0 0.0
15.9260593220261 1.0 0.0
16.12478813558534 1.0 0.0
16.32351694914468 1.0 0.0
16.52224576270527 1.0 0.0
16.72097457626511 1.0 0.0
16.91970338982543 1.0 0.0
17.11843220338561 1.0 0.0
17.31716101694539 1.0 0.0
17.51588983050497 1.0 0.0
17.71461864406449 1.0 0.0
17.91334745762401 1.0 0.0
18.11207627118383 1.0 0.0
18.31080508474307 1.0 0.0
18.50953389830311 1.0 0.0
18.70826271186271 1.0 0.0
18.90699152542239 1.0 0.0
19.10572033898203 1.0 0.0
19.30444915254171 1.0 0.0
19.50317796610107 1.0 0.0
19.70190677966065 1.0 0.0
19.90063559322003 1.0 0.0
20.0 0.7999999999999998 0.0
20.0 0.6000000000013869 0.0
20.0 0.4000000000016644 0.0
20.0 0.2000000000008322 0.0
20.0 0.9000000000000369 0.0
20.0 0.7000000000005904 0.0
20.0 0.5000000000017577 0.0
20.0 0.3000000000012483 0.0
20.0 0.1000000000004161 0.0
19.8 0.0 0.0
19.6 0.0 0.0
19.4 0.0 0.0
19.2 0.0 0.0
19.0 0.0 0.0
18.8 0.0 0.0
18.6 0.0 0.0
18.4 0.0 0.0
18.2 0.0 0.0
18.0 0.0 0.0
17.8 0.0 0.0
17.59999999999999 0.0 0.0
17.4 0.0 0.0
17.2 0.0 0.0
16.99999999999999 0.0 0.0
16.79999999999999 0.0 0.0
16.59999999999999 0.0 0.0
16.4 0.0 0.0
16.2 0.0 0.0
15.99999999999999 0.0 0.0
15.79999999999999 0.0 0.0
15.59999999999999 0.0 0.0
15.4 0.0 0.0
15.2 0.0 0.0
15.0 0.0 0.0
14.79999999999999 0.0 0.0
14.59999999999999 0.0 0.0
14.4 0.0 0.0
14.2 0.0 0.0
13.99999999999999 0.0 0.0
13.8 0.0 0.0
13.59999999999999 0.0 0.0
13.4 0.0 0.0
13.2 0.0 0.0
13.0 0.0 0.0
12.79999999999999 0.0 0.0
12.6 0.0 0.0
12.4 0.0 0.0
12.2 0.0 0.0
11.99999999999999 0.0 0.0
11.8 0.0 0.0
11.6 0.0 0.0
11.4 0.0 0.0
11.2 0.0 0.0
11.0 0.0 0.0
10.8 0.0 0.0
10.6 0.0 0.0
10.4 0.0 0.0
10.2 0.0 0.0
9.999999999999998 0.0 0.0
9.799999999999995 0.0 0.0
9.599999999999998 0.0 0.0
9.399999999999997 0.0 0.0
9.199999999999998 0.0 0.0
8.999999999999996 0.0 0.0
8.799999999999997 0.0 0.0
8.599999999999996 0.0 0.0
8.399999999999999 0.0 0.0
8.199999999999996 0.0 0.0
7.999999999999998 0.0 0.0
7.799999999999997 0.0 0.0
7.599999999999998 0.0 0.0
7.399999999999999 0.0 0.0
7.199999999999998 0.0 0.0
6.999999999999995 0.0 0.0
6.799999999999995 0.0 0.0
6.599999999999998 0.0 0.0
6.399999999999997 0.0 0.0
6.199999999999996 0.0 0.0
5.999999999999998 0.0 0.0
5.799999999999999 0.0 0.0
5.599999999999996 0.0 0.0
5.399999999999995 0.0 0.0
5.199999999999996 0.0 0.0
4.999999999999998 0.0 0.0
4.799999999999997 0.0 0.0
4.599999999999998 0.0 0.0
4.399999999999999 0.0 0.0
4.199999999999999 0.0 0.0
3.999999999999996 0.0 0.0
3.799999999999997 0.0 0.0
3.599999999999998 0.0 0.0
3.399999999999999 0.0 0.0
3.199999999999999 0.0 0.0
3.0 0.0 0.0
2.800000000000001 0.0 0.0
2.599999999999998 0.0 0.0
2.399999999999999 0.0 0.0
2.199999999999996 0.0 0.0
1.999999999999996 0.0 0.0
1.800000000000001 0.0 0.0
1.599999999999998 0.0 0.0
1.399999999999999 0.0 0.0
1.200000000000003 0.0 0.0
1.0 0.0 0.0
0.7999999999999972 0.0 0.0
0.5999999999999979 0.0 0.0
0.3999999999999986 0.0 0.0
0.1999999999999993 0.0 0.0
19.90000000000022 0.0 0.0
19.69999999999997 0.0 0.0
19.49999999999987 0.0 0.0
19.30000000000005 0.0 0.0
19.09999999999999 0.0 0.0
18.89999999999987 0.0 0.0
18.7 0.0 0.0
18.49999999999999 0.0 0.0
18.30000000000001 0.0 0.0
18.09999999999987 0.0 0.0
17.90000000000013 0.0 0.0
17.7 0.0 0.0
17.49999999999987 0.0 0.0
17.30000000000025 0.0 0.0
17.10000000000001 0.0 0.0
16.90000000000005 0.0 0.0
16.70000000000003 0.0 0.0
16.50000000000006 0.0 0.0
16.29999999999997 0.0 0.0
16.09999999999999 0.0 0.0
15.89999999999987 0.0 0.0
15.69999999999999 0.0 0.0
15.49999999999999 0.0 0.0
15.3 0.0 0.0
15.10000000000003 0.0 0.0
14.90000000000005 0.0 0.0
14.69999999999992 0.0 0.0
14.49999999999996 0.0 0.0
14.29999999999999 0.0 0.0
14.10000000000008 0.0 0.0
13.89999999999988 0.0 0.0
13.70000000000003 0.0 0.0
13.50000000000004 0.0 0.0
13.29999999999992 0.0 0.0
13.09999999999995 0.0 0.0
12.90000000000016 0.0 0.0
12.7 0.0 0.0
12.49999999999986 0.0 0.0
12.30000000000003 0.0 0.0
12.10000000000016 0.0 0.0
11.90000000000005 0.0 0.0
11.69999999999994 0.0 0.0
11.49999999999993 0.0 0.0
11.30000000000005 0.0 0.0
11.0999999999999 0.0 0.0
10.90000000000004 0.0 0.0
10.69999999999995 0.0 0.0
10.50000000000012 0.0 0.0
10.29999999999999 0.0 0.0
10.09999999999993 0.0 0.0
9.900000000000077 0.0 0.0
9.699999999999969 0.0 0.0
9.499999999999982 0.0 0.0
9.299999999999969 0.0 0.0
9.100000000000108 0.0 0.0
8.899999999999972 0.0 0.0
8.699999999999958 0.0 0.0
8.499999999999998 0.0 0.0
8.30000000000003 0.0 0.0
8.099999999999977 0.0 0.0
7.899999999999974 0.0 0.0
7.700000000000166 0.0 0.0
7.499999999999854 0.0 0.0
7.299999999999997 0.0 0.0
7.100000000000019 0.0 0.0
6.900000000000002 0.0 0.0
6.699999999999974 0.0 0.0
6.500000000000037 0.0 0.0
6.299999999999981 0.0 0.0
6.100000000000014 0.0 0.0
5.899999999999949 0.0 0.0
5.700000000000049 0.0 0.0
5.499999999999956 0.0 0.0
5.300000000000118 0.0 0.0
5.100000000000005 0.0 0.0
4.900000000000109 0.0 0.0
4.699999999999982 0.0 0.0
4.499999999999936 0.0 0.0
4.300000000000137 0.0 0.0
4.100000000000012 0.0 0.0
3.899999999999888 0.0 0.0
3.69999999999974 0.0 0.0
3.500000000000046 0.0 0.0
3.299999999999965 0.0 0.0
3.099999999999817 0.0 0.0
2.900000000000066 0.0 0.0
2.699999999999793 0.0 0.0
2.500000000000064 0.0 0.0
2.299999999999823 0.0 0.0
[...]
POINT_DATA 2790
VECTORS vector double
1.0 0.0 0.0
0.0 0.0 0.0
0.0 0.0 0.0
0.0 0.0 0.0
1.03762991406 0.0 0.0
1.0 0.0 0.0
0.0 0.0 0.0
0.0 0.0 0.0
0.0 0.0 0.0
0.0 0.0 0.0
0.0 0.0 0.0
0.0 0.0 0.0
0.0 0.0 0.0
0.0 0.0 0.0
0.0 0.0 0.0
0.0 0.0 0.0
0.0 0.0 0.0
0.0 0.0 0.0
0.0 0.0 0.0
0.0 0.0 0.0
0.0 0.0 0.0
0.0 0.0 0.0
0.0 0.0 0.0
0.0 0.0 0.0
0.0 0.0 0.0
0.0 0.0 0.0
0.0 0.0 0.0
0.0 0.0 0.0
0.0 0.0 0.0
0.0 0.0 0.0
0.0 0.0 0.0
0.0 0.0 0.0
0.0 0.0 0.0
0.0 0.0 0.0
0.0 0.0 0.0
0.0 0.0 0.0
0.0 0.0 0.0
0.0 0.0 0.0
0.0 0.0 0.0
0.0 0.0 0.0
0.0 0.0 0.0
0.0 0.0 0.0
0.0 0.0 0.0
0.0 0.0 0.0
0.0 0.0 0.0
0.0 0.0 0.0
0.0 0.0 0.0
0.0 0.0 0.0
0.0 0.0 0.0
0.0 0.0 0.0
0.0 0.0 0.0
0.0 0.0 0.0
0.0 0.0 0.0
0.0 0.0 0.0
0.0 0.0 0.0
0.0 0.0 0.0
0.0 0.0 0.0
0.0 0.0 0.0
0.0 0.0 0.0
0.0 0.0 0.0
0.0 0.0 0.0
0.0 0.0 0.0
0.0 0.0 0.0
0.0 0.0 0.0
0.0 0.0 0.0
0.0 0.0 0.0
0.0 0.0 0.0
0.0 0.0 0.0
0.0 0.0 0.0
0.0 0.0 0.0
0.0 0.0 0.0
0.0 0.0 0.0
0.0 0.0 0.0
0.0 0.0 0.0
0.0 0.0 0.0
0.0 0.0 0.0
0.0 0.0 0.0
0.0 0.0 0.0
0.0 0.0 0.0
0.0 0.0 0.0
0.0 0.0 0.0
0.0 0.0 0.0
0.0 0.0 0.0
0.0 0.0 0.0
0.0 0.0 0.0
0.0 0.0 0.0
0.0 0.0 0.0
0.0 0.0 0.0
0.0 0.0 0.0
0.0 0.0 0.0
0.0 0.0 0.0
0.0 0.0 0.0
0.0 0.0 0.0
0.0 0.0 0.0
0.0 0.0 0.0
0.0 0.0 0.0
0.0 0.0 0.0
0.0 0.0 0.0
0.0 0.0 0.0
0.0 0.0 0.0
0.0 0.0 0.0
0.0 0.0 0.0
0.0 0.0 0.0
0.0 0.0 0.0
0.0 0.0 0.0
0.0 0.0 0.0
0.0 0.0 0.0
0.0 0.0 0.0
0.0 0.0 0.0
0.0 0.0 0.0
0.0 0.0 0.0
0.0 0.0 0.0
0.0 0.0 0.0
0.0 0.0 0.0
0.0 0.0 0.0
0.0 0.0 0.0
0.0 0.0 0.0
0.0 0.0 0.0
0.0 0.0 0.0
0.0 0.0 0.0
0.0 0.0 0.0
0.0 0.0 0.0
0.0 0.0 0.0
0.0 0.0 0.0
0.0 0.0 0.0
0.0 0.0 0.0
0.0 0.0 0.0
0.0 0.0 0.0
0.0 0.0 0.0
0.0 0.0 0.0
0.0 0.0 0.0
0.0 0.0 0.0
0.0 0.0 0.0
0.0 0.0 0.0
0.0 0.0 0.0
0.0 0.0 0.0
0.0 0.0 0.0
0.0 0.0 0.0
0.0 0.0 0.0
0.0 0.0 0.0
0.0 0.0 0.0
0.0 0.0 0.0
0.0 0.0 0.0
0.0 0.0 0.0
0.0 0.0 0.0
0.0 0.0 0.0
0.0 0.0 0.0
0.0 0.0 0.0
0.0 0.0 0.0
0.0 0.0 0.0
0.0 0.0 0.0
0.0 0.0 0.0
0.0 0.0 0.0
0.0 0.0 0.0
0.0 0.0 0.0
0.0 0.0 0.0
0.0 0.0 0.0
0.0 0.0 0.0
0.0 0.0 0.0
0.0 0.0 0.0
0.0 0.0 0.0
0.0 0.0 0.0
0.0 0.0 0.0
0.0 0.0 0.0
0.0 0.0 0.0
0.0 0.0 0.0
0.0 0.0 0.0
0.0 0.0 0.0
0.0 0.0 0.0
0.0 0.0 0.0
0.0 0.0 0.0
0.0 0.0 0.0
0.0 0.0 0.0
0.0 0.0 0.0
0.0 0.0 0.0
0.0 0.0 0.0
0.0 0.0 0.0
0.0 0.0 0.0
0.0 0.0 0.0
0.0 0.0 0.0
0.0 0.0 0.0
0.0 0.0 0.0
0.0 0.0 0.0
0.0 0.0 0.0
0.0 0.0 0.0
0.0 0.0 0.0
0.0 0.0 0.0
0.0 0.0 0.0
0.0 0.0 0.0
0.0 0.0 0.0
0.0 0.0 0.0
0.0 0.0 0.0
0.0 0.0 0.0
0.0 0.0 0.0
0.0 0.0 0.0
0.0 0.0 0.0
0.0 0.0 0.0
0.0 0.0 0.0
0.0 0.0 0.0
0.0 0.0 0.0
0.0 0.0 0.0
0.0 0.0 0.0
0.0 0.0 0.0
0.0 0.0 0.0
0.0 0.0 0.0
1.18929615978 -0.0336234570044 0.0
1.06639833832 -0.00114734355556 0.0
1.04634799109 0.000708020331905 0.0
1.04010444185 0.00020374898681 0.0
0.855011421284 0.0110558685779 0.0
1.07268589203 -0.00185073059732 0.0
1.05350893617 -0.000483395638458 0.0
1.0431144784 0.000229448195733 0.0
1.03980460174 0.000496874619125 0.0
1.03671778716 0.0 0.0
1.03346228627 0.0 0.0
1.02969359272 0.0 0.0
1.02670023578 0.0 0.0
1.02418749173 0.0 0.0
1.02312633239 0.0 0.0
1.02263840454 0.0 0.0
1.02239720152 0.0 0.0
1.02251767913 0.0 0.0
1.02258917509 0.0 0.0
1.02244583543 0.0 0.0
1.02238894309 0.0 0.0
1.02230495781 0.0 0.0
1.02212373063 0.0 0.0
1.02176286809 0.0 0.0
1.02178732448 0.0 0.0
1.02199842019 0.0 0.0
1.0216817765 0.0 0.0
1.02172818407 0.0 0.0
1.02197678197 0.0 0.0
1.02166584229 0.0 0.0
1.02173554443 0.0 0.0
1.02198916137 0.0 0.0
1.02168032496 0.0 0.0
1.02175130344 0.0 0.0
1.02200286405 0.0 0.0
1.02169323392 0.0 0.0
1.02176498476 0.0 0.0
1.02201451015 0.0 0.0
1.02170375049 0.0 0.0
1.02177481246 0.0 0.0
1.02202080207 0.0 0.0
1.02170923689 0.0 0.0
1.02177385937 0.0 0.0
1.02201956787 0.0 0.0
1.02171749428 0.0 0.0
1.02177444572 0.0 0.0
1.02199005181 0.0 0.0
1.02155211128 0.0 0.0
1.021327584 0.0 0.0
1.02176085632 0.0 0.0
1.02145666854 0.0 0.0
1.0212959753 0.0 0.0
1.02175573232 0.0 0.0
1.02146577421 0.0 0.0
1.02132777138 0.0 0.0
1.02183114512 0.0 0.0
1.02159368106 0.0 0.0
1.0215611216 0.0 0.0
1.02233292832 0.0 0.0
1.02261022368 0.0 0.0
1.02337582215 0.0 0.0
1.02514699056 0.0 0.0
1.02751998859 0.0 0.0
1.02896394917 0.0 0.0
1.02957070451 0.0 0.0
1.02973988557 0.0 0.0
1.02976317217 0.0 0.0
1.02797563134 0.0 0.0
1.02603156013 0.0 0.0
1.02498854862 0.0 0.0
1.02362439142 0.0 0.0
1.02277002119 0.0 0.0
1.02290027554 0.0 0.0
1.02253477214 0.0 0.0
1.02251628117 0.0 0.0
1.02343603054 0.0 0.0
1.02402083084 0.0 0.0
1.02504816515 0.0 0.0
1.02726835689 0.0 0.0
1.02982814461 0.0 0.0
1.03074477529 0.0 0.0
1.03146028162 0.0 0.0
1.03109971696 0.0 0.0
1.02970041437 0.0 0.0
1.02837418382 0.0 0.0
1.02584026123 0.0 0.0
1.02398518169 0.0 0.0
1.02351311282 0.0 0.0
1.02321158682 0.0 0.0
1.02233257896 0.0 0.0
1.0224478219 0.0 0.0
1.02271000463 0.0 0.0
1.02226362389 0.0 0.0
1.02272896099 0.0 0.0
1.02342821414 0.0 0.0
1.02362602211 0.0 0.0
1.02522668641 0.0 0.0
1.02742010199 0.0 0.0
1.02879728348 0.0 0.0
1.03071835924 0.0 0.0
1.03213033603 0.0 0.0
1.03181434559 0.0 0.0
1.03195770291 0.0 0.0
1.03167437162 0.0 0.0
1.02947337849 0.0 0.0
1.02683232908 0.0 0.0
1.02872571674 0.0 0.0
1.0299238271 0.0 0.0
1.03898112672 0.0 0.0
1.03604857145 0.0 0.0
1.03242493021 0.0 0.0
1.02845480976 0.0 0.0
1.0256979606 0.0 0.0
1.02395613948 0.0 0.0
1.02305086559 0.0 0.0
1.02263208119 0.0 0.0
1.02263615361 0.0 0.0
1.02276955221 0.0 0.0
1.02265901659 0.0 0.0
1.02257785328 0.0 0.0
1.0225186059 0.0 0.0
1.02234822413 0.0 0.0
1.02232583752 0.0 0.0
1.02212359091 0.0 0.0
1.02226045536 0.0 0.0
1.02224438583 0.0 0.0
1.02206925949 0.0 0.0
1.02224986298 0.0 0.0
1.02223848733 0.0 0.0
1.0220729033 0.0 0.0
1.02226239063 0.0 0.0
1.02225085254 0.0 0.0
1.02208681702 0.0 0.0
1.02227554586 0.0 0.0
1.02226259503 0.0 0.0
1.02209854162 0.0 0.0
1.02228686127 0.0 0.0
1.02227196748 0.0 0.0
1.02210763342 0.0 0.0
1.02229344592 0.0 0.0
1.0222759543 0.0 0.0
1.02210673144 0.0 0.0
1.02229278128 0.0 0.0
1.02226539702 0.0 0.0
1.02210118819 0.0 0.0
1.0222841236 0.0 0.0
1.02223445938 0.0 0.0
1.02196254139 0.0 0.0
1.02218246665 0.0 0.0
1.02217839061 0.0 0.0
1.02190350887 0.0 0.0
1.02216604906 0.0 0.0
1.02217695584 0.0 0.0
1.02191532156 0.0 0.0
1.02221692155 0.0 0.0
1.02227901821 0.0 0.0
1.02209583629 0.0 0.0
1.02256772452 0.0 0.0
1.02305381959 0.0 0.0
1.02360349863 0.0 0.0
1.02514328166 0.0 0.0
1.02673948623 0.0 0.0
1.02836786721 0.0 0.0
1.030001343 0.0 0.0
1.03051368166 0.0 0.0
1.03069947657 0.0 0.0
1.02974733693 0.0 0.0
1.02777056913 0.0 0.0
1.02626219025 0.0 0.0
1.0249296534 0.0 0.0
1.02374744772 0.0 0.0
1.02349352925 0.0 0.0
1.02326309825 0.0 0.0
1.02303842592 0.0 0.0
1.02364397204 0.0 0.0
1.02434254679 0.0 0.0
1.02524922918 0.0 0.0
1.02725876868 0.0 0.0
1.0290209775 0.0 0.0
1.03060001056 0.0 0.0
1.03174365992 0.0 0.0
1.03202457183 0.0 0.0
1.03100413196 0.0 0.0
1.02935285076 0.0 0.0
1.02750650557 0.0 0.0
1.02600299921 0.0 0.0
1.02444892358 0.0 0.0
1.02394608924 0.0 0.0
1.02347089196 0.0 0.0
1.0229109606 0.0 0.0
1.02310498019 0.0 0.0
1.02316707329 0.0 0.0
1.02302191097 0.0 0.0
1.02363243068 0.0 0.0
1.0242571908 0.0 0.0
1.02500186872 0.0 0.0
1.0269648742 0.0 0.0
1.02894863459 0.0 0.0
1.03044308051 0.0 0.0
1.032200164 0.0 0.0
1.03290279104 0.0 0.0
1.03264849351 0.0 0.0
1.03249127566 0.0 0.0
1.03121060417 0.0 0.0
1.02854806784 0.0 0.0
1.02732024281 0.0 0.0
1.03479664577 0.0 0.0
1.00873198389 0.0 0.0
1.0 0.0 0.0
1.0 0.0 0.0
1.0 0.0 0.0
1.0 0.0 0.0
1.0 0.0 0.0
1.0 0.0 0.0
1.0 0.0 0.0
1.0 0.0 0.0
1.0 0.0 0.0
1.04081280797 -0.00543283406176 0.0
1.03701166642 -0.000935123008977 0.0
1.03818105195 0.00373412180119 0.0
1.02638307887 -0.00793849293882 0.0
1.02347982575 3.23922803875e-05 0.0
1.02631186744 0.00168234392496 0.0
1.02501836929 0.000978209466487 0.0
1.02518965479 0.0012785607413 0.0
1.02514115484 0.00130210714997 0.0
1.02515130646 0.00129568279244 0.0
1.02515738692 0.00128116217065 0.0
1.02516099249 0.00126713567838 0.0
1.02516309049 0.00125144356501 0.0
1.02516453166 0.0012336880995 0.0
1.02520730804 0.00119681072956 0.0
1.02441895954 0.00120903939875 0.0
1.02436060419 0.00135655589742 0.0
1.02436186048 0.00139204772777 0.0
1.02433300814 0.00151419299921 0.0
1.02975309604 -0.00618772589157 0.0
1.02478861143 0.00490553656094 0.0
1.02503360186 -0.000350400159989 0.0
1.02370617023 0.0029446831414 0.0
1.02514460143 0.00156585184709 0.0
1.02524200542 0.00126166361536 0.0
1.02832503903 0.00623787926846 0.0
1.02517235312 0.00100416262462 0.0
1.02436704109 0.00396373040144 0.0
1.02504082797 -0.000537049176925 0.0
1.03176000249 0.00596721045477 0.0
1.02726301559 -0.00536506570449 0.0
1.03716568769 0.00238663202647 0.0
1.04392031296 0.00035690114676 0.0
1.04466024443 -0.0302700780084 0.0
1.07193922163 -0.0249520699269 0.0
1.0253038103 -0.00269952736124 0.0
1.02325160854 -0.000642765222651 0.0
1.02688926097 0.00352846469272 0.0
1.02315606125 -3.81599357621e-05 0.0
1.02315207858 0.000453218249281 0.0
1.02917331895 0.0043145083194 0.0
1.02361148679 0.000981440670844 0.0
1.02323033317 -0.00063064253026 0.0
1.02553486916 -0.00322497355889 0.0
1.02476308203 0.00280707002648 0.0
1.02241122898 0.000270791550397 0.0
1.02231912839 -0.000106101879877 0.0
1.02231455155 -0.000152707300301 0.0
1.02232975113 -0.000180393528254 0.0
1.02244243193 -0.000327042870549 0.0
1.02254569506 -0.000252712848898 0.0
1.02254769596 -0.000252128589663 0.0
1.03911126828 0.00186919656073 0.0
1.02254095058 -0.00024840264401 0.0
1.02252979647 -0.000246839217114 0.0
1.0225170961 -0.0002458556504 0.0
1.0335898603 0.00062275548495 0.0
1.0225015724 -0.000247645266356 0.0
1.04061493504 0.00172544802125 0.0
1.03310859315 -0.00178405336259 0.0
1.02249983135 -0.000265878043525 0.0
1.02256755488 -0.00036354448361 0.0
1.02507152108 -0.0106263622707 0.0
1.02302213684 -0.000510797817763 0.0
1.02653239385 -0.00289129704128 0.0
1.02687508464 -0.00986070515234 0.0
1.02671110926 -0.00524363685343 0.0
1.0306901527 0.00611136601117 0.0
1.03625611935 0.0124559866597 0.0
1.0268991296 -0.00469895358341 0.0
1.02757143314 -0.00577560380854 0.0
1.02626313308 -0.00405304695788 0.0
1.02791240069 -0.00638140778547 0.0
1.02708149174 -0.010855392479 0.0
1.02653096203 0.00141572420956 0.0
1.02740794503 -0.00583789496384 0.0
1.02771687396 -0.00602738230093 0.0
1.02776577238 -0.00606081862192 0.0
1.02776105445 -0.00608949483586 0.0
1.02743283908 -0.00607970788101 0.0
1.02717534883 -0.00582884412378 0.0
1.0271798782 -0.00584902317812 0.0
1.02719070617 -0.00586603807811 0.0
1.02720235199 -0.00588460464417 0.0
1.02721185305 -0.00590384967316 0.0
1.02245533567 2.13313986714e-05 0.0
1.02722076552 -0.00592972454122 0.0
1.02721876002 -0.00597914494053 0.0
1.02720606484 -0.00606448770671 0.0
1.02739694544 -0.0073934344663 0.0
1.02391843985 -0.00322792757367 0.0
1.0062709687 -0.0157778901112 0.0
1.03750770595 -0.00787486483458 0.0
1.0306519506 0.0026858656129 0.0
1.03292457395 0.00203646838971 0.0
1.03167089708 -0.00336010675079 0.0
1.03203472361 -0.0020372283902 0.0
1.04299201196 -0.0115240447441 0.0
1.03997511082 -0.00288655558229 0.0
1.04966347047 0.0170469734348 0.0
1.04323416369 -0.0404058686426 0.0
1.06264665643 -0.00126380174635 0.0
1.05140714416 -0.00642043198549 0.0
1.02786826899 -0.00605133510119 0.0
1.02209726536 1.19479191924e-05 0.0
1.02208010879 8.72605363883e-05 0.0
1.03333897592 -0.000115981532673 0.0
1.02247963097 0.000125352104917 0.0
1.03033271813 -0.00399439235486 0.0
1.02209016748 0.000107632598766 0.0
1.02248326692 0.000146095264428 0.0
1.02247506354 0.000160784134672 0.0
1.02220598309 0.000256857144395 0.0
1.05860271225 0.000367552276219 0.0
1.02246285082 0.000162043485305 0.0
1.02326787542 0.00155432744637 0.0
1.02244740782 0.000161991629268 0.0
1.02242969511 0.000161618371433 0.0
1.03156043541 0.00227083098248 0.0
1.02241823577 0.000156941456562 0.0
1.02239282161 0.000112414033172 0.0
1.02259578994 -4.75464878874e-05 0.0
0.982066998267 0.00072975744752 0.0
1.02793450836 -0.00266985025234 0.0
1.02285324086 0.000186901408459 0.0
0.977475997031 0.0109313530915 0.0
0.993350668822 0.0127536700273 0.0
1.02267807527 -0.000582907375872 0.0
0.986165698348 0.0122473600851 0.0
1.02361989342 -0.000808571436975 0.0
1.02459303654 0.00184814156681 0.0
0.986419059859 0.0125851261731 0.0
0.986570858631 0.0126235934737 0.0
0.986679752098 0.0126246423484 0.0
0.986774635358 0.0126141018755 0.0
1.02301079767 0.000227952306899 0.0
1.02300701692 0.000303385312708 0.0
0.986862569669 0.0126029284403 0.0
0.986943015626 0.0125887536422 0.0
0.987018286699 0.0125762261262 0.0
0.987054956122 0.0126223060422 0.0
0.985544836555 0.0124538811654 0.0
1.0246181915 0.0020561574906 0.0
1.02289962442 -0.000126577078348 0.0
0.985672961108 0.0124173742846 0.0
0.985716266012 0.012425772643 0.0
1.05133633111 -0.00583534478106 0.0
0.985678560869 0.0124653311063 0.0
0.980501206323 0.0136063703359 0.0
0.986322448434 0.0116835601376 0.0
0.987523984932 0.0121609989335 0.0
0.987143749885 0.0119201137585 0.0
0.97931786329 0.0113080090184 0.0
0.987529600871 0.011787974127 0.0
0.980109096766 0.012308083858 0.0
0.986957458419 0.0108492784448 0.0
1.04661134474 0.0214338158366 0.0
1.02643577223 0.00585553121207 0.0
1.01963786269 0.0249361315286 0.0
1.03272590569 -0.000303757572534 0.0
1.0239615461 -0.00122403293768 0.0
1.02784645079 -0.00259764495285 0.0
1.02968281444 0.00256915719336 0.0
1.03214125839 0.00037726367765 0.0
1.02727786564 0.00250738435992 0.0
1.12448692936 0.0161996735275 0.0
1.11647163995 0.012501312241 0.0
1.02626975928 -0.0032230966687 0.0
1.03118827081 -0.0272763457407 0.0
1.05026934445 -0.0137678099 0.0
1.03045076394 -0.0118071720795 0.0
1.02538390869 -0.00219690190382 0.0
1.06798609002 -0.0393557680273 0.0
1.04402169607 -0.0202388012861 0.0
1.1127004453 0.0135822765347 0.0
1.16136074933 -0.0506214396536 0.0
1.02206297873 -4.33059777883e-05 0.0
1.02192523097 -7.14833107963e-06 0.0
1.02219636861 5.92036302229e-06 0.0
1.02192171494 4.93278815451e-06 0.0
1.24768400395 -0.151145551094 0.0
1.02197571519 5.16739914744e-05 0.0
1.02220238242 4.64562635507e-06 0.0
1.02258002174 0.000521971015573 0.0
1.0221984181 5.8591605652e-06 0.0
1.02218956016 6.62761468583e-06 0.0
1.02638726614 0.00185576840551 0.0
1.02439809473 -0.00104779926618 0.0
1.03278639075 -0.000640340830043 0.0
1.02293452302 -0.000101094080302 0.0
1.02329354537 0.000401500405579 0.0
1.0221784611 6.68557354092e-06 0.0
1.02371069377 0.000811585095504 0.0
1.02288927755 2.38137148343e-05 0.0
1.03232303718 0.000958637372175 0.0
1.02355103072 -0.000509732970712 0.0
1.02216539464 5.60166558402e-06 0.0
1.02216658433 -1.64474489024e-05 0.0
1.02222964867 -3.1820865613e-05 0.0
1.02254845951 -0.000160096596505 0.0
1.02248419391 6.01319962514e-05 0.0
1.02343958708 -0.00126659172001 0.0
1.03149588653 0.00483018754602 0.0
1.08417547724 0.0226618752007 0.0
1.0610621338 -0.00907791175647 0.0
1.08297731822 0.0276345516794 0.0
1.0686259038 -0.0114377066386 0.0
1.07125806071 -0.00937119634473 0.0
1.07196427302 -0.00878241109424 0.0
1.07200207939 -0.00870456653741 0.0
1.03627797728 0.00515562814862 0.0
1.07194519697 -0.00868552492353 0.0
1.07187350506 -0.00867122247622 0.0
1.07179795493 -0.00865939984228 0.0
1.02167786325 0.00135273967542 0.0
1.03326960259 -0.00852607742225 0.0
1.07171751274 -0.0086478180852 0.0
1.02084898148 -0.00263772933771 0.0
1.07163959542 -0.00863617172987 0.0
1.07155926026 -0.00861177877532 0.0
1.07172183121 -0.00872989105147 0.0
1.07184862982 -0.00862373223543 0.0
1.02183195745 -4.2975701323e-05 0.0
1.07175958958 -0.00859835329295 0.0
1.02162287891 0.000377862414662 0.0
1.06940334454 -0.0107938823187 0.0
1.07161102086 -0.00856740482697 0.0
1.02162765175 0.000443630615573 0.0
1.04664326585 -0.00469262895301 0.0
1.0216353054 0.00047326643272 0.0
1.05962353592 -0.00628363894441 0.0
1.07090477559 -0.00900527457984 0.0
1.02164264407 0.000477460875515 0.0
1.04406259904 -0.00153596551505 0.0
1.05083673675 -0.000493474865157 0.0
1.02164806052 0.000479510390757 0.0
1.02904746819 0.00801480219789 0.0
1.02165114568 0.000480394419954 0.0
1.02165535437 0.000480480091832 0.0
1.07047727727 -0.00955987517743 0.0
1.02166948931 0.000498651868061 0.0
1.02159354794 0.00017175045312 0.0
1.02665312256 0.00647925941747 0.0
1.05124993703 -0.00105498430394 0.0
1.0697197318 -0.00881646618541 0.0
1.02169541092 0.000143337373058 0.0
1.0216905465 0.000166558799287 0.0
1.05153342292 -0.00129832567627 0.0
1.068635386 -0.00936034757765 0.0
1.02165389435 0.000222903470539 0.0
1.05091314667 -0.00174268466801 0.0
1.04407125718 0.00486861721802 0.0
1.02138718492 0.000813945461056 0.0
1.02442320833 0.00479413004217 0.0
1.05883164909 -0.00348817328719 0.0
1.03458611413 -0.00553207554928 0.0
1.02245486089 -0.00291444841741 0.0
1.0222418735 -4.10627930616e-05 0.0
1.02404467982 -0.000392165542146 0.0
1.02180787617 0.00126065661171 0.0
1.02413317199 -0.00120388408881 0.0
1.02795323676 0.00569758737169 0.0
1.02405778029 -0.0020609659216 0.0
1.02607753396 -0.00506858061871 0.0
1.03474851076 0.00151231071483 0.0
1.03349168058 -0.00268193343908 0.0
1.03499603088 -0.000794118511204 0.0
1.02270134925 -0.00262656102609 0.0
1.03454781672 1.07262312365e-05 0.0
1.03269234095 0.00803795765222 0.0
1.02222873667 -3.19778793819e-05 0.0
1.02530467538 0.00446277850908 0.0
1.0222751756 0.000566722416672 0.0
1.02423102682 -0.00107450254252 0.0
1.0219299893 0.00203838326797 0.0
1.02429917455 -0.00216803651338 0.0
1.06396022087 -0.00974343375611 0.0
1.0264729947 -0.00630415327052 0.0
1.06330785323 -0.00741065094754 0.0
1.0241341191 0.00366695599274 0.0
1.08910143389 0.0336787866226 0.0
1.02369353337 0.00264305954141 0.0
1.06355069116 -0.0071097586015 0.0
1.04625270719 -0.000361744321067 0.0
1.02373115424 -0.00111016717028 0.0
1.02381734507 -0.00134430702284 0.0
1.06224784193 -0.00728244501025 0.0
1.04620327803 -0.000594523478159 0.0
1.02382149352 -0.00138301634589 0.0
1.02277290415 -0.000120679430438 0.0
1.02381877915 -0.00143646202894 0.0
1.02394107313 -0.00196934660323 0.0
1.06428521388 -0.000119217301762 0.0
1.0237567243 -0.00191121341275 0.0
1.02374413498 -0.00190457246757 0.0
1.02373898934 -0.00190672043218 0.0
1.0237299013 -0.00191223935886 0.0
1.02371859431 -0.00191766793416 0.0
1.02370704928 -0.00193129082156 0.0
1.02368913197 -0.00198487182846 0.0
1.02232984021 -0.00135761403361 0.0
1.0236390878 -0.00210174407302 0.0
1.02451130644 -0.00239935041277 0.0
1.02383655679 -0.00674855431074 0.0
1.02974036521 -0.00147204438787 0.0
1.02240470699 -0.000140187953038 0.0
1.02982773364 0.000171641486595 0.0
1.04998047868 0.000136733451307 0.0
1.0502116898 6.05967303813e-05 0.0
1.05028651309 6.61171477315e-05 0.0
1.0503124508 7.10142205214e-05 0.0
1.02229765913 -6.67143674389e-05 0.0
1.05019882519 -1.63611914895e-05 0.0
1.0503362288 -0.000167060459956 0.0
1.05034822781 -0.000143737433047 0.0
1.0503615476 -0.000130210933391 0.0
1.05037398999 -0.000119416268268 0.0
1.05038033111 -0.000108710771505 0.0
1.02227369947 -5.71772907706e-05 0.0
1.05037812262 -0.00010272138838 0.0
1.0503491605 -0.000114728288274 0.0
1.05022508388 -0.000218573605646 0.0
1.04835145023 -0.000212214250497 0.0
1.02228419774 -5.63329932623e-05 0.0
1.02229678949 -5.83370693616e-05 0.0
1.02980282475 -0.00188279838993 0.0
1.02230779165 -5.99820622076e-05 0.0
1.03120561608 0.00142611429658 0.0
1.02078488862 -0.0126525981962 0.0
1.02231545768 -6.33121898823e-05 0.0
1.00702120035 -0.0282016239224 0.0
1.03152650444 -0.00162000103471 0.0
1.0224863156 -0.000143146822969 0.0
1.0223083595 -6.51153890143e-05 0.0
1.05018006219 -0.0112383770761 0.0
1.02226663218 -6.14230949653e-05 0.0
1.02202139826 -6.63437081036e-05 0.0
1.0290222027 0.00164144099717 0.0
1.02200080519 -4.13759807889e-05 0.0
1.02202385136 -1.02882699032e-05 0.0
1.03899534008 -0.00262907911619 0.0
1.02229323209 0.00017992149634 0.0
1.02454713887 0.00115676067166 0.0
1.03287538551 0.000277946415079 0.0
1.02910495163 0.00171519457108 0.0
1.02623701357 -0.0014354476693 0.0
1.02642313753 0.00141673981889 0.0
1.02527562651 -0.00110604133559 0.0
1.02328654338 -0.000334948662977 0.0
1.0239685693 0.000618516682231 0.0
1.02204883804 -0.000207644716845 0.0
1.02205561482 -0.000207450380196 0.0
1.03102698609 -0.000444336974761 0.0
1.02203744977 -0.000206736777871 0.0
1.02205756379 -0.000214383934609 0.0
1.02320871685 0.000270274009526 0.0