# vtk DataFile Version 2.0
2D Simulation Python
ASCII
DATASET UNSTRUCTURED_GRID
FIELD FieldData 1
NODES 1 2 int
2790 1289

POINTS 2790 double
0.0 1.0 0.0
1.725 1.0 0.0
8.275 1.0 0.0
20.0 1.0 0.0
20.0 0.0 0.0
0.0 0.0 0.0
0.1916666666663293 1.0 0.0
0.3833333333324708 1.0 0.0
0.574999999998553 1.0 0.0
0.7666666666645966 1.0 0.0
0.9583333333312576 1.0 0.0
1.149999999998384 1.0 0.0
1.341666666665662 1.0 0.0
1.533333333332819 1.0 0.0
0.0958333333331406 1.0 0.0
0.2874999999994247 1.0 0.0
0.4791666666655395 1.0 0.0
0.6708333333315728 1.0 0.0
0.8624999999976626 1.0 0.0
1.054166666664886 1.0 0.0
1.245833333332057 1.0 0.0
1.437499999999343 1.0 0.0
1.629166666666455 1.0 0.0
1.92348484848444 1.0 0.0
2.121969696968978 1.0 0.0
2.320454545453434 1.0 0.0
2.518939393937826 1.0 0.0
2.717424242422235 1.0 0.0
2.915909090906411 1.0 0.0
3.1143939393908 1.0 0.0
3.312878787875129 1.0 0.0
3.511363636359531 1.0 0.0
3.709848484843827 1.0 0.0
3.90833333332816 1.0 0.0
4.106818181812215 1.0 0.0
4.305303030296804 1.0 0.0
4.503787878781365 1.0 0.0
4.702272727265711 1.0 0.0
4.900757575750005 1.0 0.0
5.099242424235156 1.0 0.0
5.297727272720327 1.0 0.0
5.496212121205663 1.0 0.0
5.694696969690998 1.0 0.0
5.89318181817668 1.0 0.0
6.09166666666213 1.0 0.0
6.290151515147423 1.0 0.0
6.488636363633031 1.0 0.0
6.687121212118713 1.0 0.0
6.885606060604342 1.0 0.0
7.084090909089381 1.0 0.0
7.282575757574369 1.0 0.0
7.481060606059355 1.0 0.0
7.679545454544343 1.0 0.0
7.878030303029329 1.0 0.0
8.076515151514705 1.0 0.0
1.824242424242199 1.0 0.0
2.022727272726695 1.0 0.0
2.221212121211181 1.0 0.0
2.41969696969563 1.0 0.0
2.618181818180092 1.0 0.0
2.816666666664316 1.0 0.0
3.015151515148624 1.0 0.0
3.213636363633039 1.0 0.0
3.412121212117267 1.0 0.0
3.610606060601583 1.0 0.0
3.809090909085975 1.0 0.0
4.007575757570153 1.0 0.0
4.206060606054539 1.0 0.0
4.404545454539001 1.0 0.0
4.603030303023853 1.0 0.0
4.801515151507715 1.0 0.0
4.999999999992074 1.0 0.0
5.198484848477777 1.0 0.0
5.396969696963081 1.0 0.0
5.595454545448261 1.0 0.0
5.793939393933949 1.0 0.0
5.992424242419331 1.0 0.0
6.190909090904785 1.0 0.0
6.389393939390224 1.0 0.0
6.587878787875795 1.0 0.0
6.786363636361617 1.0 0.0
6.984848484846598 1.0 0.0
7.183333333331875 1.0 0.0
7.381818181816625 1.0 0.0
7.580303030301849 1.0 0.0
7.778787878786936 1.0 0.0
7.977272727272114 1.0 0.0
8.175757575757618 1.0 0.0
8.473728813558951 1.0 0.0
8.672457627118133 1.0 0.0
8.871186440676855 1.0 0.0
9.069915254236154 1.0 0.0
9.268644067794812 1.0 0.0
9.467372881354057 1.0 0.0
9.666101694912944 1.0 0.0
9.864830508471961 1.0 0.0
10.06355932203108 1.0 0.0
10.26228813558986 1.0 0.0
10.46101694914916 1.0 0.0
10.65974576270777 1.0 0.0
10.85847457626706 1.0 0.0
11.05720338982589 1.0 0.0
11.25593220338497 1.0 0.0
11.45466101694402 1.0 0.0
11.65338983050287 1.0 0.0
11.85211864406215 1.0 0.0
12.05084745762035 1.0 0.0
12.24957627117938 1.0 0.0
12.44830508473794 1.0 0.0
12.64703389829659 1.0 0.0
12.84576271185557 1.0 0.0
13.04449152541379 1.0 0.0
13.24322033897301 1.0 0.0
13.44194915253121 1.0 0.0
13.6406779660903 1.0 0.0
13.83940677964874 1.0 0.0
14.03813559320751 1.0 0.0
14.23686440676681 1.0 0.0
14.43559322032663 1.0 0.0
14.63432203388679 1.0 0.0
14.8330508474463 1.0 0.0
15.0317796610067 1.0 0.0
15.23050847456608 1.0 0.0
15.42923728812645 1.0 0.0
15.62796610168606 1.0 0.0
15.82669491524602 1.0 0.0
16.02542372880584 1.0 0.0
16.22415254236431 1.0 0.0
16.42288135592496 1.0 0.0
16.62161016948498 1.0 0.0
16.82033898304518 1.0 0.0
17.01906779660567 1.0 0.0
17.2177966101654 1.0 0.0
17.41652542372565 1.0 0.0
17.61525423728425 1.0 0.0
17.81398305084494 1.0 0.0
18.01271186440355 1.0 0.0
18.21144067796387 1.0 0.0
18.41016949152309 1.0 0.0
18.6088983050827 1.0 0.0
18.80762711864282 1.0 0.0
19.00635593220153 1.0 0.0
19.20508474576211 1.0 0.0
19.40381355932072 1.0 0.0
19.60254237288117 1.0 0.0
19.80127118644013 1.0 0.0
8.374364406779554 1.0 0.0
8.573093220338519 1.0 0.0
8.771822033897509 1.0 0.0
8.970550847456504 1.0 0.0
9.169279661015429 1.0 0.0
9.368008474574502 1.0 0.0
9.566737288133496 1.0 0.0
9.765466101692677 1.0 0.0
9.964194915251602 1.0 0.0
10.16292372881015 1.0 0.0
10.36165254236967 1.0 0.0
10.56038135592849 1.0 0.0
10.75911016948728 1.0 0.0
10.95783898304648 1.0 0.0
11.15656779660554 1.0 0.0
11.35529661016447 1.0 0.0
11.55402542372345 1.0 0.0
11.75275423728253 1.0 0.0
11.95148305084111 1.0 0.0
12.15021186439983 1.0 0.0
12.34894067795883 1.0 0.0
12.54766949151722 1.0 0.0
12.74639830507616 1.0 0.0
12.94512711863486 1.0 0.0
13.14385593219357 1.0 0.0
13.34258474575207 1.0 0.0
13.54131355931069 1.0 0.0
13.7400423728695 1.0 0.0
13.93877118642822 1.0 0.0
14.13749999998697 1.0 0.0
14.33622881354686 1.0 0.0
14.53495762710678 1.0 0.0
14.73368644066656 1.0 0.0
14.93241525422655 1.0 0.0
15.13114406778625 1.0 0.0
15.32987288134641 1.0 0.0
15.52860169490635 1.0 0.0
15.7273305084661 1.0 0.0
15.9260593220261 1.0 0.0
16.12478813558534 1.0 0.0
16.32351694914468 1.0 0.0
16.52224576270527 1.0 0.0
16.72097457626511 1.0 0.0
16.91970338982543 1.0 0.0
17.11843220338561 1.0 0.0
17.31716101694539 1.0 0.0
17.51588983050497 1.0 0.0
17.71461864406449 1.0 0.0
17.91334745762401 1.0 0.0
18.11207627118383 1.0 0.0
18.31080508474307 1.0 0.0
18.50953389830311 1.0 0.0
18.70826271186271 1.0 0.0
18.90699152542239 1.0 0.0
19.10572033898203 1.0 0.0
19.30444915254171 1.0 0.0
19.50317796610107 1.0 0.0
19.70190677966065 1.0 0.0
19.90063559322003 1.0 0.0
20.0 0.7999999999999998 0.0
20.0 0.6000000000013869 0.0
20.0 0.4000000000016644 0.0
20.0 0.2000000000008322 0.0
20.0 0.9000000000000369 0.0
20.0 0.7000000000005904 0.0
20.0 0.5000000000017577 0.0
20.0 0.3000000000012483 0.0
20.0 0.1000000000004161 0.0
19.8 0.0 0.0
19.6 0.0 0.0
19.4 0.0 0.0
19.2 0.0 0.0
19.0 0.0 0.0
18.8 0.0 0.0
18.6 0.0 0.0
18.4 0.0 0.0
18.2 0.0 0.0
18.0 0.0 0.0
17.8 0.0 0.0
17.59999999999999 0.0 0.0
17.4 0.0 0.0
17.2 0.0 0.0
16.99999999999999 0.0 0.0
16.79999999999999 0.0 0.0
16.59999999999999 0.0 0.0
16.4 0.0 0.0
16.2 0.0 0.0
15.99999999999999 0.0 0.0
15.79999999999999 0.0 0.0
15.59999999999999 0.0 0.0
15.4 0.0 0.0
15.2 0.0 0.0
15.0 0.0 0.0
14.79999999999999 0.0 0.0
14.59999999999999 0.0 0.0
14.4 0.0 0.0
14.2 0.0 0.0
13.99999999999999 0.0 0.0
13.8 0.0 0.0
13.59999999999999 0.0 0.0
13.4 0.0 0.0
13.2 0.0 0.0
13.0 0.0 0.0
12.79999999999999 0.0 0.0
12.6 0.0 0.0
12.4 0.0 0.0
12.2 0.0 0.0
11.99999999999999 0.0 0.0
11.8 0.0 0.0
11.6 0.0 0.0
11.4 0.0 0.0
11.2 0.0 0.0
11.0 0.0 0.0
10.8 0.0 0.0
10.6 0.0 0.0
10.4 0.0 0.0
10.2 0.0 0.0
9.999999999999998 0.0 0.0
9.799999999999995 0.0 0.0
9.599999999999998 0.0 0.0
9.399999999999997 0.0 0.0
9.199999999999998 0.0 0.0
8.999999999999996 0.0 0.0
8.799999999999997 0.0 0.0
8.599999999999996 0.0 0.0
8.399999999999999 0.0 0.0
8.199999999999996 0.0 0.0
7.999999999999998 0.0 0.0
7.799999999999997 0.0 0.0
7.599999999999998 0.0 0.0
7.399999999999999 0.0 0.0
7.199999999999998 0.0 0.0
6.999999999999995 0.0 0.0
6.799999999999995 0.0 0.0
6.599999999999998 0.0 0.0
6.399999999999997 0.0 0.0
6.199999999999996 0.0 0.0
5.999999999999998 0.0 0.0
5.799999999999999 0.0 0.0
5.599999999999996 0.0 0.0
5.399999999999995 0.0 0.0
5.199999999999996 0.0 0.0
4.999999999999998 0.0 0.0
4.799999999999997 0.0 0.0
4.599999999999998 0.0 0.0
4.399999999999999 0.0 0.0
4.199999999999999 0.0 0.0
3.999999999999996 0.0 0.0
3.799999999999997 0.0 0.0
3.599999999999998 0.0 0.0
3.399999999999999 0.0 0.0
3.199999999999999 0.0 0.0
3.0 0.0 0.0
2.800000000000001 0.0 0.0
2.599999999999998 0.0 0.0
2.399999999999999 0.0 0.0
2.199999999999996 0.0 0.0
1.999999999999996 0.0 0.0
1.800000000000001 0.0 0.0
1.599999999999998 0.0 0.0
1.399999999999999 0.0 0.0
1.200000000000003 0.0 0.0
1.0 0.0 0.0
0.7999999999999972 0.0 0.0
0.5999999999999979 0.0 0.0
0.3999999999999986 0.0 0.0
0.1999999999999993 0.0 0.0
19.90000000000022 0.0 0.0
19.69999999999997 0.0 0.0
19.49999999999987 0.0 0.0
19.30000000000005 0.0 0.0
19.09999999999999 0.0 0.0
18.89999999999987 0.0 0.0
18.7 0.0 0.0
18.49999999999999 0.0 0.0
18.30000000000001 0.0 0.0
18.09999999999987 0.0 0.0
17.90000000000013 0.0 0.0
17.7 0.0 0.0
17.49999999999987 0.0 0.0
17.30000000000025 0.0 0.0
17.10000000000001 0.0 0.0
16.90000000000005 0.0 0.0
16.70000000000003 0.0 0.0
16.50000000000006 0.0 0.0
16.29999999999997 0.0 0.0
16.09999999999999 0.0 0.0
15.89999999999987 0.0 0.0
15.69999999999999 0.0 0.0
15.49999999999999 0.0 0.0
15.3 0.0 0.0
15.10000000000003 0.0 0.0
14.90000000000005 0.0 0.0
14.69999999999992 0.0 0.0
14.49999999999996 0.0 0.0
14.29999999999999 0.0 0.0
14.10000000000008 0.0 0.0
13.89999999999988 0.0 0.0
13.70000000000003 0.0 0.0
13.50000000000004 0.0 0.0
13.29999999999992 0.0 0.0
13.09999999999995 0.0 0.0
12.90000000000016 0.0 0.0
12.7 0.0 0.0
12.49999999999986 0.0 0.0
12.30000000000003 0.0 0.0
12.10000000000016 0.0 0.0
11.90000000000005 0.0 0.0
11.69999999999994 0.0 0.0
11.49999999999993 0.0 0.0
11.30000000000005 0.0 0.0
11.0999999999999 0.0 0.0
10.90000000000004 0.0 0.0
10.69999999999995 0.0 0.0
10.50000000000012 0.0 0.0
10.29999999999999 0.0 0.0
10.09999999999993 0.0 0.0
9.900000000000077 0.0 0.0
9.699999999999969 0.0 0.0
9.499999999999982 0.0 0.0
9.299999999999969 0.0 0.0
9.100000000000108 0.0 0.0
8.899999999999972 0.0 0.0
8.699999999999958 0.0 0.0
8.499999999999998 0.0 0.0
8.30000000000003 0.0 0.0
8.099999999999977 0.0 0.0
7.899999999999974 0.0 0.0
7.700000000000166 0.0 0.0
7.499999999999854 0.0 0.0
7.299999999999997 0.0 0.0
7.100000000000019 0.0 0.0
6.900000000000002 0.0 0.0
6.699999999999974 0.0 0.0
6.500000000000037 0.0 0.0
6.299999999999981 0.0 0.0
6.100000000000014 0.0 0.0
5.899999999999949 0.0 0.0
5.700000000000049 0.0 0.0
5.499999999999956 0.0 0.0
5.300000000000118 0.0 0.0
5.100000000000005 0.0 0.0
4.900000000000109 0.0 0.0
4.699999999999982 0.0 0.0
4.499999999999936 0.0 0.0
4.300000000000137 0.0 0.0
4.100000000000012 0.0 0.0
3.899999999999888 0.0 0.0
3.69999999999974 0.0 0.0
3.500000000000046 0.0 0.0
3.299999999999965 0.0 0.0
3.099999999999817 0.0 0.0
2.900000000000066 0.0 0.0
2.699999999999793 0.0 0.0
2.500000000000064 0.0 0.0
2.299999999999823 0.0 0.0
[...]
POINT_DATA 2790
VECTORS vector double
1.0 0.0 0.0
0.0 0.0 0.0
0.0 0.0 0.0
0.0 0.0 0.0
1.6005002135 0.0 0.0
1.0 0.0 0.0
0.0 0.0 0.0
0.0 0.0 0.0
0.0 0.0 0.0
0.0 0.0 0.0
0.0 0.0 0.0
0.0 0.0 0.0
0.0 0.0 0.0
0.0 0.0 0.0
0.0 0.0 0.0
0.0 0.0 0.0
0.0 0.0 0.0
0.0 0.0 0.0
0.0 0.0 0.0
0.0 0.0 0.0
0.0 0.0 0.0
0.0 0.0 0.0
0.0 0.0 0.0
0.0 0.0 0.0
0.0 0.0 0.0
0.0 0.0 0.0
0.0 0.0 0.0
0.0 0.0 0.0
0.0 0.0 0.0
0.0 0.0 0.0
0.0 0.0 0.0
0.0 0.0 0.0
0.0 0.0 0.0
0.0 0.0 0.0
0.0 0.0 0.0
0.0 0.0 0.0
0.0 0.0 0.0
0.0 0.0 0.0
0.0 0.0 0.0
0.0 0.0 0.0
0.0 0.0 0.0
0.0 0.0 0.0
0.0 0.0 0.0
0.0 0.0 0.0
0.0 0.0 0.0
0.0 0.0 0.0
0.0 0.0 0.0
0.0 0.0 0.0
0.0 0.0 0.0
0.0 0.0 0.0
0.0 0.0 0.0
0.0 0.0 0.0
0.0 0.0 0.0
0.0 0.0 0.0
0.0 0.0 0.0
0.0 0.0 0.0
0.0 0.0 0.0
0.0 0.0 0.0
0.0 0.0 0.0
0.0 0.0 0.0
0.0 0.0 0.0
0.0 0.0 0.0
0.0 0.0 0.0
0.0 0.0 0.0
0.0 0.0 0.0
0.0 0.0 0.0
0.0 0.0 0.0
0.0 0.0 0.0
0.0 0.0 0.0
0.0 0.0 0.0
0.0 0.0 0.0
0.0 0.0 0.0
0.0 0.0 0.0
0.0 0.0 0.0
0.0 0.0 0.0
0.0 0.0 0.0
0.0 0.0 0.0
0.0 0.0 0.0
0.0 0.0 0.0
0.0 0.0 0.0
0.0 0.0 0.0
0.0 0.0 0.0
0.0 0.0 0.0
0.0 0.0 0.0
0.0 0.0 0.0
0.0 0.0 0.0
0.0 0.0 0.0
0.0 0.0 0.0
0.0 0.0 0.0
0.0 0.0 0.0
0.0 0.0 0.0
0.0 0.0 0.0
0.0 0.0 0.0
0.0 0.0 0.0
0.0 0.0 0.0
0.0 0.0 0.0
0.0 0.0 0.0
0.0 0.0 0.0
0.0 0.0 0.0
0.0 0.0 0.0
0.0 0.0 0.0
0.0 0.0 0.0
0.0 0.0 0.0
0.0 0.0 0.0
0.0 0.0 0.0
0.0 0.0 0.0
0.0 0.0 0.0
0.0 0.0 0.0
0.0 0.0 0.0
0.0 0.0 0.0
0.0 0.0 0.0
0.0 0.0 0.0
0.0 0.0 0.0
0.0 0.0 0.0
0.0 0.0 0.0
0.0 0.0 0.0
0.0 0.0 0.0
0.0 0.0 0.0
0.0 0.0 0.0
0.0 0.0 0.0
0.0 0.0 0.0
0.0 0.0 0.0
0.0 0.0 0.0
0.0 0.0 0.0
0.0 0.0 0.0
0.0 0.0 0.0
0.0 0.0 0.0
0.0 0.0 0.0
0.0 0.0 0.0
0.0 0.0 0.0
0.0 0.0 0.0
0.0 0.0 0.0
0.0 0.0 0.0
0.0 0.0 0.0
0.0 0.0 0.0
0.0 0.0 0.0
0.0 0.0 0.0
0.0 0.0 0.0
0.0 0.0 0.0
0.0 0.0 0.0
0.0 0.0 0.0
0.0 0.0 0.0
0.0 0.0 0.0
0.0 0.0 0.0
0.0 0.0 0.0
0.0 0.0 0.0
0.0 0.0 0.0
0.0 0.0 0.0
0.0 0.0 0.0
0.0 0.0 0.0
0.0 0.0 0.0
0.0 0.0 0.0
0.0 0.0 0.0
0.0 0.0 0.0
0.0 0.0 0.0
0.0 0.0 0.0
0.0 0.0 0.0
0.0 0.0 0.0
0.0 0.0 0.0
0.0 0.0 0.0
0.0 0.0 0.0
0.0 0.0 0.0
0.0 0.0 0.0
0.0 0.0 0.0
0.0 0.0 0.0
0.0 0.0 0.0
0.0 0.0 0.0
0.0 0.0 0.0
0.0 0.0 0.0
0.0 0.0 0.0
0.0 0.0 0.0
0.0 0.0 0.0
0.0 0.0 0.0
0.0 0.0 0.0
0.0 0.0 0.0
0.0 0.0 0.0
0.0 0.0 0.0
0.0 0.0 0.0
0.0 0.0 0.0
0.0 0.0 0.0
0.0 0.0 0.0
0.0 0.0 0.0
0.0 0.0 0.0
0.0 0.0 0.0
0.0 0.0 0.0
0.0 0.0 0.0
0.0 0.0 0.0
0.0 0.0 0.0
0.0 0.0 0.0
0.0 0.0 0.0
0.0 0.0 0.0
0.0 0.0 0.0
0.0 0.0 0.0
0.0 0.0 0.0
0.0 0.0 0.0
0.0 0.0 0.0
0.0 0.0 0.0
0.0 0.0 0.0
0.0 0.0 0.0
0.0 0.0 0.0
0.0 0.0 0.0
0.0 0.0 0.0
0.0 0.0 0.0
0.0 0.0 0.0
0.0 0.0 0.0
0.535414790695 0.000123262227774 0.0
0.95081794407 -9.6073882822e-05 0.0
1.24836367178 -0.000492094823134 0.0
1.45084776421 -0.000345036471373 0.0
0.273104397226 -6.12506720029e-05 0.0
0.74858239428 0.0011516554118 0.0
1.10452111332 -0.000127879395454 0.0
1.35250391342 -0.000767163843717 0.0
1.52499243915 -0.00025953135935 0.0
1.59890448633 0.0 0.0
1.5981000611 0.0 0.0
1.59724523222 0.0 0.0
1.59606833032 0.0 0.0
1.59397453075 0.0 0.0
1.59322883784 0.0 0.0
1.59177423121 0.0 0.0
1.58949788834 0.0 0.0
1.58821815854 0.0 0.0
1.58652558519 0.0 0.0
1.58408123191 0.0 0.0
1.58257320169 0.0 0.0
1.58066331296 0.0 0.0
1.57800914308 0.0 0.0
1.57487936686 0.0 0.0
1.57255259152 0.0 0.0
1.57118581487 0.0 0.0
1.56788778019 0.0 0.0
1.56528816419 0.0 0.0
1.56369822205 0.0 0.0
1.56013277067 0.0 0.0
1.5572853411 0.0 0.0
1.55544278206 0.0 0.0
1.55159441731 0.0 0.0
1.54846258645 0.0 0.0
1.54636198553 0.0 0.0
1.54222507195 0.0 0.0
1.53880575462 0.0 0.0
1.53644816503 0.0 0.0
1.53202280749 0.0 0.0
1.52832366901 0.0 0.0
1.52571977264 0.0 0.0
1.52101750368 0.0 0.0
1.51705527272 0.0 0.0
1.51423531015 0.0 0.0
1.50925607267 0.0 0.0
1.50505533615 0.0 0.0
1.50209050252 0.0 0.0
1.49651889057 0.0 0.0
1.49189384679 0.0 0.0
1.4887518138 0.0 0.0
1.48339130911 0.0 0.0
1.47862863124 0.0 0.0
1.47533808942 0.0 0.0
1.46980403901 0.0 0.0
1.4648325948 0.0 0.0
1.46139976067 0.0 0.0
1.45575003227 0.0 0.0
1.4505979607 0.0 0.0
1.44687445423 0.0 0.0
1.44114521194 0.0 0.0
1.43584958652 0.0 0.0
1.43172939455 0.0 0.0
1.42847196703 0.0 0.0
1.42215437335 0.0 0.0
1.41556345037 0.0 0.0
1.40990872378 0.0 0.0
1.40514564787 0.0 0.0
1.39881833427 0.0 0.0
1.39298020827 0.0 0.0
1.388531644 0.0 0.0
1.38193737391 0.0 0.0
1.37578491839 0.0 0.0
1.37114392378 0.0 0.0
1.36426969317 0.0 0.0
1.35786054507 0.0 0.0
1.35287793748 0.0 0.0
1.3457995052 0.0 0.0
1.33911865941 0.0 0.0
1.33351990927 0.0 0.0
1.32818660555 0.0 0.0
1.32008466077 0.0 0.0
1.31313939416 0.0 0.0
1.3054659348 0.0 0.0
1.29703249703 0.0 0.0
1.28977379591 0.0 0.0
1.280944983 0.0 0.0
1.27210825087 0.0 0.0
1.26401960033 0.0 0.0
1.25606031954 0.0 0.0
1.2469411077 0.0 0.0
1.23819494176 0.0 0.0
1.22934508359 0.0 0.0
1.2196942514 0.0 0.0
1.2101028484 0.0 0.0
1.20020662742 0.0 0.0
1.18982747707 0.0 0.0
1.17909970291 0.0 0.0
1.16782765421 0.0 0.0
1.15633933553 0.0 0.0
1.14393689409 0.0 0.0
1.13031946103 0.0 0.0
1.11630593907 0.0 0.0
1.10044974548 0.0 0.0
1.08221549548 0.0 0.0
1.06308248726 0.0 0.0
1.04120699182 0.0 0.0
1.01958929408 0.0 0.0
1.00430648506 0.0 0.0
1.59956120341 0.0 0.0
1.59797788503 0.0 0.0
1.59829900819 0.0 0.0
1.59595190269 0.0 0.0
1.59442306463 0.0 0.0
1.59324583058 0.0 0.0
1.59308037811 0.0 0.0
1.59001823395 0.0 0.0
1.58825465758 0.0 0.0
1.58785429118 0.0 0.0
1.58465429131 0.0 0.0
1.58267570501 0.0 0.0
1.58208847722 0.0 0.0
1.57870073848 0.0 0.0
1.57648702465 0.0 0.0
1.57316096372 0.0 0.0
1.57204879775 0.0 0.0
1.56960476633 0.0 0.0
1.56595166529 0.0 0.0
1.56464392477 0.0 0.0
1.56194411066 0.0 0.0
1.55803602566 0.0 0.0
1.55649650155 0.0 0.0
1.55351542398 0.0 0.0
1.5493072174 0.0 0.0
1.54752316504 0.0 0.0
1.5442577591 0.0 0.0
1.53974441667 0.0 0.0
1.53771546147 0.0 0.0
1.53416806379 0.0 0.0
1.5293525951 0.0 0.0
1.5270881387 0.0 0.0
1.52327313684 0.0 0.0
1.51816661634 0.0 0.0
1.51568576128 0.0 0.0
1.51164268017 0.0 0.0
1.50629483213 0.0 0.0
1.50354858804 0.0 0.0
1.49918267087 0.0 0.0
1.49337442299 0.0 0.0
1.48998865554 0.0 0.0
1.48613038985 0.0 0.0
1.48019330812 0.0 0.0
1.47662304704 0.0 0.0
1.47261734039 0.0 0.0
1.46647415449 0.0 0.0
1.46273081345 0.0 0.0
1.45860710517 0.0 0.0
1.4523054356 0.0 0.0
1.448327253 0.0 0.0
1.44403885391 0.0 0.0
1.43764547468 0.0 0.0
1.43346178627 0.0 0.0
1.42889099095 0.0 0.0
1.42445442843 0.0 0.0
1.41854515939 0.0 0.0
1.41180381781 0.0 0.0
1.40713884524 0.0 0.0
1.40195065783 0.0 0.0
1.39510099728 0.0 0.0
1.39030201733 0.0 0.0
1.38521558671 0.0 0.0
1.3779124912 0.0 0.0
1.3729721488 0.0 0.0
1.36764136476 0.0 0.0
1.36013578017 0.0 0.0
1.35487010403 0.0 0.0
1.34926014913 0.0 0.0
1.34159201069 0.0 0.0
1.33592212517 0.0 0.0
1.32967468706 0.0 0.0
1.32320680866 0.0 0.0
1.31598549805 0.0 0.0
1.30862969083 0.0 0.0
1.30068813041 0.0 0.0
1.29282040874 0.0 0.0
1.2841066039 0.0 0.0
1.27604993052 0.0 0.0
1.26753077165 0.0 0.0
1.25987826521 0.0 0.0
1.25097574196 0.0 0.0
1.24214913499 0.0 0.0
1.23357635402 0.0 0.0
1.22411443693 0.0 0.0
1.21463548328 0.0 0.0
1.20496884973 0.0 0.0
1.19475760057 0.0 0.0
1.18438126258 0.0 0.0
1.1733202463 0.0 0.0
1.16197897868 0.0 0.0
1.15026127677 0.0 0.0
1.13704027933 0.0 0.0
1.12337521925 0.0 0.0
1.10866866298 0.0 0.0
1.09125394946 0.0 0.0
1.07278608535 0.0 0.0
1.05257780862 0.0 0.0
1.03021793843 0.0 0.0
1.01154240555 0.0 0.0
0.999337440916 0.0 0.0
1.0 0.0 0.0
1.0 0.0 0.0
1.0 0.0 0.0
1.0 0.0 0.0
1.0 0.0 0.0
1.0 0.0 0.0
1.0 0.0 0.0
1.0 0.0 0.0
1.0 0.0 0.0
1.16558102223 -0.0703869151657 0.0
1.22304098748 -0.04636386585 0.0
1.22780801931 -0.0314096224319 0.0
1.08253363458 -0.000574490613046 0.0
1.12082485264 -0.000994150939495 0.0
1.12123441133 -0.00117101760015 0.0
1.11989378902 -0.00130178842103 0.0
1.11955466871 -0.00146706341623 0.0
1.12140744979 -0.00163623984112 0.0
1.12324381896 -0.00181289540562 0.0
1.12534734377 -0.00199598130411 0.0
1.12773424642 -0.00220368747855 0.0
1.13040882689 -0.00242818060784 0.0
1.13335380022 -0.00266188522253 0.0
1.13654607429 -0.00289378334205 0.0
1.09176785595 -0.00283649233279 0.0
1.09602102861 -0.00294415935457 0.0
1.10045554986 -0.00313199997835 0.0
1.1050743613 -0.00330484780294 0.0
1.16050679436 -0.00456151650963 0.0
1.22154739547 -0.023169130275 0.0
1.13210564678 -0.00460264230133 0.0
1.11004334374 -0.0033803103199 0.0
1.20871388627 -0.017793549842 0.0
1.13940563553 -0.00514422016799 0.0
1.15090250569 -0.00403435332482 0.0
1.1955947108 -0.0140883025762 0.0
1.14773885407 -0.00560300230597 0.0
1.18329588475 -0.0114841823337 0.0
1.1846352728 -0.00689513508394 0.0
1.1953764492 -0.0107216909611 0.0
1.15692100824 -0.00455760138553 0.0
1.17253506896 -0.00997245560055 0.0
0.876353927525 -0.000932470465592 0.0
1.19724179385 -0.14347059252 0.0
1.29341495255 -0.0108246594436 0.0
1.28128046063 -0.012615158492 0.0
1.31239245954 -0.00728180251906 0.0
1.2665884304 -0.0148706423053 0.0
1.31345660339 -0.00653688908658 0.0
1.21640617753 -0.0209694017461 0.0
1.24585645505 -0.0176450144384 0.0
1.31591616223 -0.00599388902334 0.0
1.31766380667 -0.00550784625735 0.0
1.32107431743 -0.00467866416632 0.0
1.32211100006 -0.00440279398676 0.0
1.32282757943 -0.00421745699535 0.0
1.32351520098 -0.00399930988494 0.0
1.32404345229 -0.00379786837741 0.0
1.31508655088 -0.00361836434504 0.0
1.31508781311 -0.00331419542309 0.0
1.31520826374 -0.00306423799586 0.0
1.21000257039 -0.0544829938562 0.0
1.31515244179 -0.00280095822668 0.0
1.31507479042 -0.00254777013111 0.0
1.31500423292 -0.00230936548566 0.0
1.17500269181 -0.0255549551125 0.0
1.31497062175 -0.00208523204189 0.0
1.1409499033 -0.0295421222337 0.0
1.12649797199 -0.0343310738497 0.0
1.3130977925 -0.0018710656057 0.0
1.31310382724 -0.00173968951987 0.0
0.833941823627 -0.000708223616275 0.0
1.31269220779 -0.00150356024343 0.0
0.834990528905 -0.000726492049719 0.0
0.976010781407 -0.00725533622141 0.0
0.995610187661 -0.00867792524136 0.0
0.935470535461 -0.00327799447006 0.0
1.0890566214 -0.0198120778746 0.0
1.0195283589 -0.0110590673182 0.0
0.922944259959 -0.00354487569086 0.0
1.04975208805 -0.0146478433038 0.0
0.912696924823 -0.00328914401397 0.0
0.903653114572 -0.00285244674427 0.0
0.89535197322 -0.00221910091101 0.0
0.888622071707 -0.00239292895524 0.0
0.882364210056 -0.0022936037181 0.0
0.876363342273 -0.00217842986489 0.0
0.870723462065 -0.00206316146395 0.0
0.865539288126 -0.00183261151219 0.0
0.860681419969 -0.00175663778647 0.0
0.856301337666 -0.00159893662364 0.0
0.852279156734 -0.00144906277949 0.0
0.848643364886 -0.00131718672783 0.0
0.845371299926 -0.00119914579529 0.0
1.31698201729 -0.00128420994929 0.0
0.842428564896 -0.0010905415358 0.0
0.83977002961 -0.00102314136031 0.0
0.837463888103 -0.000857084233444 0.0
0.835453203632 -0.000745236829602 0.0
1.33463191674 -0.0010609594859 0.0
1.03252297323 -0.0338740910422 0.0
1.33999632983 -0.00062681397376 0.0
1.32038566432 -0.00510617038415 0.0
1.31329224373 -0.00847462774631 0.0
1.30448159525 -0.00963186893856 0.0
1.33146479568 -0.00538751982705 0.0
0.839798856978 -0.00348474050875 0.0
0.879969957523 -0.00236269876331 0.0
0.897764925789 -0.00360818897747 0.0
0.907136295185 -0.00790371992086 0.0
1.1785612605 -0.0750945247445 0.0
1.03988675804 -0.0276240981321 0.0
1.34234324993 -0.000963433168215 0.0
1.38741449504 -0.00342334239537 0.0
1.38372531694 -0.00360066847027 0.0
1.13720376436 -0.0208936088986 0.0
1.37767303161 -0.00345341801658 0.0
1.07384132791 -0.0282471934543 0.0
1.37959422539 -0.00378087277813 0.0
1.38008745181 -0.00319743209944 0.0
1.38218853895 -0.00294984675878 0.0
1.37063999212 -0.00405225278408 0.0
0.952253269494 -0.0155801318178 0.0
1.38407780127 -0.00269686170062 0.0
1.36658274258 -0.00422638569702 0.0
1.38578547759 -0.00245082296031 0.0
1.38734928101 -0.00222066761123 0.0
1.18338457941 -0.0170015271257 0.0
1.38879931828 -0.00200301185505 0.0
1.37982911062 -0.00179763655499 0.0
1.43016825031 -0.00149489446454 0.0
0.613098917651 -0.000101986155806 0.0
1.35540230562 -0.00492723471815 0.0
1.42805530512 -0.00138059250303 0.0
0.629208988559 -0.000155012272919 0.0
0.589729944206 0.000128334895823 0.0
1.42904112097 -0.00120745818949 0.0
0.614725449963 -3.05566457089e-05 0.0
1.35082371172 -0.0051752661758 0.0
1.2197373649 -0.0144367091022 0.0
0.616334733234 -8.12290554676e-05 0.0
0.61840959759 -0.000125932658353 0.0
0.620694136933 -0.000164813272202 0.0
0.623254098931 -0.000205483010454 0.0
1.34401753029 -0.00557999667922 0.0
1.24962895565 -0.0124899245467 0.0
0.626118863959 -0.000255973130585 0.0
0.629325999837 -0.000312394297195 0.0
0.632910461278 -0.000384400677138 0.0
0.636782559293 -0.000427724926349 0.0
0.641704590373 -0.000630033171268 0.0
1.33544972148 -0.00608381735766 0.0
1.27333478786 -0.0108810806239 0.0
0.646379600163 -0.000687010707484 0.0
0.651416589295 -0.000754851703001 0.0
0.522247772771 -0.000519509073042 0.0
0.656783397396 -0.000809740559573 0.0
0.844732685988 -0.00837714650221 0.0
0.681657902574 -0.00094160152192 0.0
0.805828703308 -0.0059014002439 0.0
0.689922039662 -0.00115903632804 0.0
0.662115190857 -0.000820559550291 0.0
0.776999730066 -0.0044152324522 0.0
0.698567072214 -0.00102966118292 0.0
0.754590488158 -0.00334667433055 0.0
0.54619148717 0.000250270557333 0.0
0.632201438484 -0.0023908820419 0.0
0.565103244566 -0.000287393924077 0.0
1.32361339233 -0.00609666430549 0.0
1.29254743665 -0.00959899540873 0.0
1.30587261248 -0.00882003130765 0.0
1.33012685961 -0.00685600974519 0.0
1.35965130524 -0.00472177503716 0.0
1.36791830141 -0.00430806434072 0.0
0.648905192864 -0.00284197816269 0.0
0.863010931057 -0.00785211879116 0.0
1.43243376408 -0.00101108708561 0.0
1.03773987375 -0.0516263845097 0.0
1.11461165743 -0.000811900224376 0.0
1.18391674826 -0.000727507690296 0.0
1.04065964488 -0.0189450802547 0.0
0.510947128192 -3.40050672667e-05 0.0
1.10150871686 -0.0748278886547 0.0
1.03519530624 -0.0660841590812 0.0
0.557560794405 -0.00140327796326 0.0
1.43064347432 -0.00292708799953 0.0
1.42533136663 -0.00314078668588 0.0
1.43479732421 -0.00262764208019 0.0
1.41879595663 -0.00328089675154 0.0
1.27605357348 -0.290000684817 0.0
1.41142524677 -0.00344284461711 0.0
1.43995140308 -0.00244576596126 0.0
1.40423634924 -0.00349704270834 0.0
1.44465354842 -0.00225675784238 0.0
1.44893993877 -0.0020651911984 0.0
1.1950762219 -0.0100529575816 0.0
1.37324232905 -0.00426200606217 0.0
1.10725688034 -0.0156975746801 0.0
1.36300664461 -0.00454786609934 0.0
1.22912384088 -0.00886184523135 0.0
1.45282388351 -0.00187774920601 0.0
1.35163011891 -0.00481082400539 0.0
1.25802881329 -0.00783818547663 0.0
1.1552165583 -0.0118785022715 0.0
1.28261248782 -0.00700987129427 0.0
1.45634484079 -0.00169648945917 0.0
1.45829367734 -0.00153027650218 0.0
1.46002884409 -0.00137736101804 0.0
1.45943281107 -0.00100500530844 0.0
1.46323649235 -0.000893791158509 0.0
1.46637691932 -0.00087790485228 0.0
1.16190174206 -0.00441934172586 0.0
0.759397266378 -0.0101946618742 0.0
0.813482641382 -0.0171693315683 0.0
0.874149892484 -0.0226813476274 0.0
0.727831905166 -0.00883475590465 0.0
0.483798099661 -0.000515030330468 0.0
0.48535946472 -0.00052235634533 0.0
0.487216101809 -0.000560131491676 0.0
1.20793186458 -0.00848091845982 0.0
0.489280811324 -0.000582020638181 0.0
0.491571691489 -0.000619541569964 0.0
0.494103940294 -0.000664811254606 0.0
1.12150382909 -0.000842648876519 0.0
1.2122248729 -0.0108237856124 0.0
0.496916365126 -0.000715795047269 0.0
1.12034566359 -0.000830358713172 0.0
0.500044740201 -0.000779673672428 0.0
0.503502504585 -0.000877979162341 0.0
0.507057744721 -0.000519513850821 0.0
0.511038920543 -0.000572751815912 0.0
1.10991224255 -0.00120076394586 0.0
0.515405216266 -0.000620923268143 0.0
1.11133324548 -0.000921563796524 0.0
0.489171253438 -0.000367684136835 0.0
0.520064635961 -0.000667796933105 0.0
1.11286412769 -0.00118258158193 0.0
0.490933419423 -0.000654873318824 0.0
1.11509724063 -0.00132025463711 0.0
0.488970487427 -0.000787208276577 0.0
0.524955256966 -0.000736760468718 0.0
1.11709428149 -0.00149207034703 0.0
0.489282398615 -0.000640730775081 0.0
0.515601996933 -0.000348836736317 0.0
1.11935650971 -0.0016799216658 0.0
0.69864669078 -0.00813640323389 0.0
1.12188683936 -0.00188355319059 0.0
1.12471322514 -0.00210310998887 0.0
0.543720235149 -0.000654122054629 0.0
1.12769741069 -0.00230290823513 0.0
1.12833469101 -0.00261934142772 0.0
1.22919664487 -0.0264544997466 0.0
0.661571595771 -0.00547822562143 0.0
0.550701971576 -0.00111373495489 0.0
1.13003159429 -0.00264576439678 0.0
1.13398334613 -0.00282600686921 0.0
0.635017926278 -0.0042247193908 0.0
0.558227154918 -0.00117201253534 0.0
1.13814478387 -0.00297229190992 0.0
0.614860362798 -0.00338645140903 0.0
0.541607267174 -0.00061532097893 0.0
1.14253471988 -0.00312184530568 0.0
1.14456156455 -0.00332082872628 0.0
0.584998394492 -0.0024114766415 0.0
1.15608324802 -0.00495976684808 0.0
1.16248716065 -0.0042400587187 0.0
1.16886413214 -0.00466084103368 0.0
1.2246797565 -0.0206165342826 0.0
1.17588724253 -0.00517112748119 0.0
1.2171211985 -0.0165145895169 0.0
1.18029333171 -0.0058333103296 0.0
1.20884558349 -0.0135333565221 0.0
1.19757688351 -0.0114375775053 0.0
1.22112021017 -0.0373790796003 0.0
1.1986994076 -0.0513582622465 0.0
1.18189350677 -0.0540695630126 0.0
1.19548562083 -0.00993534277729 0.0
1.22508424916 -0.0349950737963 0.0
1.22678599711 -0.0267941546242 0.0
1.20438001599 -0.0121635132525 0.0
1.17202631018 -0.0071010963247 0.0
1.2139639602 -0.0153274224477 0.0
1.1638578668 -0.0065439555294 0.0
1.22254659 -0.0198309045394 0.0
1.15723564374 -0.00598959390402 0.0
0.609896813646 -0.00217283327435 0.0
1.15728636119 -0.00519551328265 0.0
0.62983105099 -0.00308428045842 0.0
0.567814320346 -0.00143522948978 0.0
0.702142591865 -0.0074251499907 0.0
1.13829754394 -0.00457070380773 0.0
0.652267052253 -0.00396732088998 0.0
0.564676447217 -0.00172954475115 0.0
1.13416575775 -0.00449450392022 0.0
1.12994681911 -0.00428238578053 0.0
0.682196050323 -0.00530771098631 0.0
0.557357065604 -0.00161152480457 0.0
1.12592162288 -0.00407939637916 0.0
1.45891246696 -0.00149474031239 0.0
1.12202734689 -0.00388151398332 0.0
1.13174287718 -0.00336747365887 0.0
0.527755046899 -0.000310521369349 0.0
1.12910765664 -0.00314938379083 0.0
1.12628129578 -0.00292575032224 0.0
1.12365921074 -0.0026953339364 0.0
1.12131412124 -0.00248192738062 0.0
1.11923994997 -0.00228849425519 0.0
1.11743175013 -0.00210848469989 0.0
1.11527942662 -0.00203655122699 0.0
1.11296275746 -0.000939391016698 0.0
1.11431832928 -0.00140603484032 0.0
1.11342752113 -0.00144348205005 0.0
1.1076050584 -0.00130346360487 0.0
1.38273671611 -0.00401416385892 0.0
1.46014018083 -0.00154586751631 0.0
0.536608543881 -0.00135619598931 0.0
0.527070997338 -0.00139641823228 0.0
0.522206057297 -0.0013130525904 0.0
0.517611034874 -0.00126874303022 0.0
0.513318426409 -0.00123857408881 0.0
1.45817363183 -0.0015209709788 0.0
0.50956957186 -0.000862828247492 0.0
0.505983127071 -0.000920216420607 0.0
0.502618784688 -0.000852212584987 0.0
0.49959643934 -0.000797054371024 0.0
0.496878675026 -0.000749077377987 0.0
0.494433155875 -0.000705871033472 0.0
1.45652294976 -0.00171220012961 0.0
0.492227008428 -0.000656248613173 0.0
0.490222299889 -0.000624829372781 0.0
0.48849179079 -0.00058175586989 0.0
0.490237001112 -0.000238963032474 0.0
1.45308451346 -0.00189711983531 0.0
1.44931225728 -0.00208663774443 0.0
1.31106361571 -0.00705924021284 0.0
1.44516825238 -0.00228207040349 0.0
1.33239987936 -0.00509029340092 0.0
0.87863172238 -0.000427901002221 0.0
1.44062253059 -0.00247693272325 0.0
1.00662209161 -0.0125136348076 0.0
1.08309471658 -0.0176304800695 0.0
1.46082111406 -0.00133227950286 0.0
1.43564552892 -0.00265982811315 0.0
1.21458595221 -0.101579485744 0.0
1.43046189698 -0.00281300329171 0.0
1.43959158356 -0.00227274397926 0.0
1.38943864571 -0.00343524831776 0.0
1.43204814586 -0.00238408289041 0.0
1.42399821575 -0.00250892180087 0.0
1.46158417878 -0.000708607377405 0.0
1.41510769149 -0.0026651217192 0.0
1.40640686838 -0.00273625497403 0.0
1.1340173596 -0.0105797367018 0.0
1.17603355329 -0.00881731967203 0.0
1.38027533471 -0.00315442932891 0.0
1.34412236267 -0.00382007059468 0.0
1.29172192175 -0.00568217807064 0.0
1.36938523911 -0.00337479752155 0.0
1.21159152745 -0.00782900353098 0.0
1.2986374777 -0.00221823462085 0.0