# vtk DataFile Version 2.0
2D Simulation Python
ASCII
DATASET UNSTRUCTURED_GRID
FIELD FieldData 1
NODES 1 2 int
2790 1289

POINTS 2790 double
0.0 1.0 0.0
1.725 1.0 0.0
8.275 1.0 0.0
20.0 1.0 0.0
20.0 0.0 0.0
0.0 0.0 0.0
0.1916666666663293 1.0 0.0
0.3833333333324708 1.0 0.0
0.574999999998553 1.0 0.0
0.7666666666645966 1.0 0.0
0.9583333333312576 1.0 0.0
1.149999999998384 1.0 0.0
1.341666666665662 1.0 0.0
1.533333333332819 1.0 0.0
0.0958333333331406 1.0 0.0
0.2874999999994247 1.0 0.0
0.4791666666655395 1.0 0.0
0.6708333333315728 1.0 0.0
0.8624999999976626 1.0 0.0
1.054166666664886 1.0 0.0
1.245833333332057 1.0 0.0
1.437499999999343 1.0 0.0
1.629166666666455 1.0 0.0
1.92348484848444 1.0 0.0
2.121969696968978 1.0 0.0
2.320454545453434 1.0 0.0
2.518939393937826 1.0 0.0
2.717424242422235 1.0 0.0
2.915909090906411 1.0 0.0
3.1143939393908 1.0 0.0
3.312878787875129 1.0 0.0
3.511363636359531 1.0 0.0
3.709848484843827 1.0 0.0
3.90833333332816 1.0 0.0
4.106818181812215 1.0 0.0
4.305303030296804 1.0 0.0
4.503787878781365 1.0 0.0
4.702272727265711 1.0 0.0
4.900757575750005 1.0 0.0
5.099242424235156 1.0 0.0
5.297727272720327 1.0 0.0
5.496212121205663 1.0 0.0
5.694696969690998 1.0 0.0
5.89318181817668 1.0 0.0
6.09166666666213 1.0 0.0
6.290151515147423 1.0 0.0
6.488636363633031 1.0 0.0
6.687121212118713 1.0 0.0
6.885606060604342 1.0 0.0
7.084090909089381 1.0 0.0
7.282575757574369 1.0 0.0
7.481060606059355 1.0 0.0
7.679545454544343 1.0 0.0
7.878030303029329 1.0 0.0
8.076515151514705 1.0 0.0
1.824242424242199 1.0 0.0
2.022727272726695 1.0 0.0
2.221212121211181 1.0 0.0
2.41969696969563 1.0 0.0
2.618181818180092 1.0 0.0
2.816666666664316 1.0 0.0
3.015151515148624 1.0 0.0
3.213636363633039 1.0 0.0
3.412121212117267 1.0 0.0
3.610606060601583 1.0 0.0
3.809090909085975 1.0 0.0
4.007575757570153 1.0 0.0
4.206060606054539 1.0 0.0
4.404545454539001 1.0 0.0
4.603030303023853 1.0 0.0
4.801515151507715 1.0 0.0
4.999999999992074 1.0 0.0
5.198484848477777 1.0 0.0
5.396969696963081 1.0 0.0
5.595454545448261 1.0 0.0
5.793939393933949 1.0 0.0
5.992424242419331 1.0 0.0
6.190909090904785 1.0 0.0
6.389393939390224 1.0 0.0
6.587878787875795 1.0 0.0
6.786363636361617 1.0 0.0
6.984848484846598 1.0 0.0
7.183333333331875 1.0 0.0
7.381818181816625 1.0 0.0
7.580303030301849 1.0 0.0
7.778787878786936 1.0 0.0
7.977272727272114 1.0 0.0
8.175757575757618 1.0 0.0
8.473728813558951 1.0 0.0
8.672457627118133 1.0 0.0
8.871186440676855 1.0 0.0
9.069915254236154 1.0 0.0
9.268644067794812 1.0 0.0
9.467372881354057 1.0 0.0
9.666101694912944 1.0 0.0
9.864830508471961 1.0 0.0
10.06355932203108 1.0 0.0
10.26228813558986 1.0 0.0
10.46101694914916 1.0 0.0
10.65974576270777 1.0 0.0
10.85847457626706 1.0 0.0
11.05720338982589 1.0 0.0
11.25593220338497 1.0 0.0
11.45466101694402 1.0 0.0
11.65338983050287 1.0 0.0
11.85211864406215 1.0 0.0
12.05084745762035 1.0 0.0
12.24957627117938 1.0 0.0
12.44830508473794 1.0 0.0
12.64703389829659 1.0 0.0
12.84576271185557 1.0 0.0
13.04449152541379 1.0 0.0
13.24322033897301 1.0 0.0
13.44194915253121 1.0 0.0
13.6406779660903 1.0 0.0
13.83940677964874 1.0 0.0
14.03813559320751 1.0 0.0
14.23686440676681 1.0 0.0
14.43559322032663 1.0 0.0
14.63432203388679 1.0 0.0
14.8330508474463 1.0 0.0
15.0317796610067 1.0 0.0
15.23050847456608 1.0 0.0
15.42923728812645 1.0 0.0
15.62796610168606 1.0 0.0
15.82669491524602 1.0 0.0
16.02542372880584 1.0 0.0
16.22415254236431 1.0 0.0
16.42288135592496 1.0 0.0
16.62161016948498 1.0 0.0
16.82033898304518 1.0 0.0
17.01906779660567 1.0 0.0
17.2177966101654 1.0 0.0
17.41652542372565 1.0 0.0
17.61525423728425 1.0 0.0
17.81398305084494 1.0 0.0
18.01271186440355 1.0 0.0
18.21144067796387 1.0 0.0
18.41016949152309 1.0 0.0
18.6088983050827 1.0 0.0
18.80762711864282 1.0 0.0
19.00635593220153 1.0 0.0
19.20508474576211 1.0 0.0
19.40381355932072 1.0 0.0
19.60254237288117 1.0 0.0
19.80127118644013 1.0 0.0
8.374364406779554 1.0 0.0
8.573093220338519 1.0 0.0
8.771822033897509 1.0 0.0
8.970550847456504 1.0 0.0
9.169279661015429 1.0 0.0
9.368008474574502 1.0 0.0
9.566737288133496 1.0 0.0
9.765466101692677 1.0 0.0
9.964194915251602 1.0 0.0
10.16292372881015 1.0 0.0
10.36165254236967 1.0 0.0
10.56038135592849 1.0 0.0
10.75911016948728 1.0 0.0
10.95783898304648 1.0 0.0
11.15656779660554 1.0 0.0
11.35529661016447 1.0 0.0
11.55402542372345 1.0 0.0
11.75275423728253 1.0 0.0
11.95148305084111 1.0 0.0
12.15021186439983 1.0 0.0
12.34894067795883 1.0 0.0
12.54766949151722 1.0 0.0
12.74639830507616 1.0 0.0
12.94512711863486 1.0 0.0
13.14385593219357 1.0 0.0
13.34258474575207 1.0 0.0
13.54131355931069 1.0 0.0
13.7400423728695 1.0 0.0
13.93877118642822 1.0 0.0
14.13749999998697 1.0 0.0
14.33622881354686 1.0 0.0
14.53495762710678 1.0 0.0
14.73368644066656 1.0 0.0
14.93241525422655 1.0 0.0
15.13114406778625 1.0 0.0
15.32987288134641 1.0 0.0
15.52860169490635 1.0 0.0
15.7273305084661 1.0 0.0
15.9260593220261 1.0 0.0
16.12478813558534 1.0 0.0
16.32351694914468 1.0 0.0
16.52224576270527 1.0 0.0
16.72097457626511 1.0 0.0
16.91970338982543 1.0 0.0
17.11843220338561 1.0 0.0
17.31716101694539 1.0 0.0
17.51588983050497 1.0 0.0
17.71461864406449 1.0 0.0
17.91334745762401 1.0 0.0
18.11207627118383 1.0 0.0
18.31080508474307 1.0 0.0
18.50953389830311 1.0 0.0
18.70826271186271 1.0 0.0
18.90699152542239 1.0 0.0
19.10572033898203 1.0 0.0
19.30444915254171 1.0 0.0
19.50317796610107 1.0 0.0
19.70190677966065 1.0 0.0
19.90063559322003 1.0 0.0
20.0 0.7999999999999998 0.0
20.0 0.6000000000013869 0.0
20.0 0.4000000000016644 0.0
20.0 0.2000000000008322 0.0
20.0 0.9000000000000369 0.0
20.0 0.7000000000005904 0.0
20.0 0.5000000000017577 0.0
20.0 0.3000000000012483 0.0
20.0 0.1000000000004161 0.0
19.8 0.0 0.0
19.6 0.0 0.0
19.4 0.0 0.0
19.2 0.0 0.0
19.0 0.0 0.0
18.8 0.0 0.0
18.6 0.0 0.0
18.4 0.0 0.0
18.2 0.0 0.0
18.0 0.0 0.0
17.8 0.0 0.0
17.59999999999999 0.0 0.0
17.4 0.0 0.0
17.2 0.0 0.0
16.99999999999999 0.0 0.0
16.79999999999999 0.0 0.0
16.59999999999999 0.0 0.0
16.4 0.0 0.0
16.2 0.0 0.0
15.99999999999999 0.0 0.0
15.79999999999999 0.0 0.0
15.59999999999999 0.0 0.0
15.4 0.0 0.0
15.2 0.0 0.0
15.0 0.0 0.0
14.79999999999999 0.0 0.0
14.59999999999999 0.0 0.0
14.4 0.0 0.0
14.2 0.0 0.0
13.99999999999999 0.0 0.0
13.8 0.0 0.0
13.59999999999999 0.0 0.0
13.4 0.0 0.0
13.2 0.0 0.0
13.0 0.0 0.0
12.79999999999999 0.0 0.0
12.6 0.0 0.0
12.4 0.0 0.0
12.2 0.0 0.0
11.99999999999999 0.0 0.0
11.8 0.0 0.0
11.6 0.0 0.0
11.4 0.0 0.0
11.2 0.0 0.0
11.0 0.0 0.0
10.8 0.0 0.0
10.6 0.0 0.0
10.4 0.0 0.0
10.2 0.0 0.0
9.999999999999998 0.0 0.0
9.799999999999995 0.0 0.0
9.599999999999998 0.0 0.0
9.399999999999997 0.0 0.0
9.199999999999998 0.0 0.0
8.999999999999996 0.0 0.0
8.799999999999997 0.0 0.0
8.599999999999996 0.0 0.0
8.399999999999999 0.0 0.0
8.199999999999996 0.0 0.0
7.999999999999998 0.0 0.0
7.799999999999997 0.0 0.0
7.599999999999998 0.0 0.0
7.399999999999999 0.0 0.0
7.199999999999998 0.0 0.0
6.999999999999995 0.0 0.0
6.799999999999995 0.0 0.0
6.599999999999998 0.0 0.0
6.399999999999997 0.0 0.0
6.199999999999996 0.0 0.0
5.999999999999998 0.0 0.0
5.799999999999999 0.0 0.0
5.599999999999996 0.0 0.0
5.399999999999995 0.0 0.0
5.199999999999996 0.0 0.0
4.999999999999998 0.0 0.0
4.799999999999997 0.0 0.0
4.599999999999998 0.0 0.0
4.399999999999999 0.0 0.0
4.199999999999999 0.0 0.0
3.999999999999996 0.0 0.0
3.799999999999997 0.0 0.0
3.599999999999998 0.0 0.0
3.399999999999999 0.0 0.0
3.199999999999999 0.0 0.0
3.0 0.0 0.0
2.800000000000001 0.0 0.0
2.599999999999998 0.0 0.0
2.399999999999999 0.0 0.0
2.199999999999996 0.0 0.0
1.999999999999996 0.0 0.0
1.800000000000001 0.0 0.0
1.599999999999998 0.0 0.0
1.399999999999999 0.0 0.0
1.200000000000003 0.0 0.0
1.0 0.0 0.0
0.7999999999999972 0.0 0.0
0.5999999999999979 0.0 0.0
0.3999999999999986 0.0 0.0
0.1999999999999993 0.0 0.0
19.90000000000022 0.0 0.0
19.69999999999997 0.0 0.0
19.49999999999987 0.0 0.0
19.30000000000005 0.0 0.0
19.09999999999999 0.0 0.0
18.89999999999987 0.0 0.0
18.7 0.0 0.0
18.49999999999999 0.0 0.0
18.30000000000001 0.0 0.0
18.09999999999987 0.0 0.0
17.90000000000013 0.0 0.0
17.7 0.0 0.0
17.49999999999987 0.0 0.0
17.30000000000025 0.0 0.0
17.10000000000001 0.0 0.0
16.90000000000005 0.0 0.0
16.70000000000003 0.0 0.0
16.50000000000006 0.0 0.0
16.29999999999997 0.0 0.0
16.09999999999999 0.0 0.0
15.89999999999987 0.0 0.0
15.69999999999999 0.0 0.0
15.49999999999999 0.0 0.0
15.3 0.0 0.0
15.10000000000003 0.0 0.0
14.90000000000005 0.0 0.0
14.69999999999992 0.0 0.0
14.49999999999996 0.0 0.0
14.29999999999999 0.0 0.0
14.10000000000008 0.0 0.0
13.89999999999988 0.0 0.0
13.70000000000003 0.0 0.0
13.50000000000004 0.0 0.0
13.29999999999992 0.0 0.0
13.09999999999995 0.0 0.0
12.90000000000016 0.0 0.0
12.7 0.0 0.0
12.49999999999986 0.0 0.0
12.30000000000003 0.0 0.0
12.10000000000016 0.0 0.0
11.90000000000005 0.0 0.0
11.69999999999994 0.0 0.0
11.49999999999993 0.0 0.0
11.30000000000005 0.0 0.0
11.0999999999999 0.0 0.0
10.90000000000004 0.0 0.0
10.69999999999995 0.0 0.0
10.50000000000012 0.0 0.0
10.29999999999999 0.0 0.0
10.09999999999993 0.0 0.0
9.900000000000077 0.0 0.0
9.699999999999969 0.0 0.0
9.499999999999982 0.0 0.0
9.299999999999969 0.0 0.0
9.100000000000108 0.0 0.0
8.899999999999972 0.0 0.0
8.699999999999958 0.0 0.0
8.499999999999998 0.0 0.0
8.30000000000003 0.0 0.0
8.099999999999977 0.0 0.0
7.899999999999974 0.0 0.0
7.700000000000166 0.0 0.0
7.499999999999854 0.0 0.0
7.299999999999997 0.0 0.0
7.100000000000019 0.0 0.0
6.900000000000002 0.0 0.0
6.699999999999974 0.0 0.0
6.500000000000037 0.0 0.0
6.299999999999981 0.0 0.0
6.100000000000014 0.0 0.0
5.899999999999949 0.0 0.0
5.700000000000049 0.0 0.0
5.499999999999956 0.0 0.0
5.300000000000118 0.0 0.0
5.100000000000005 0.0 0.0
4.900000000000109 0.0 0.0
4.699999999999982 0.0 0.0
4.499999999999936 0.0 0.0
4.300000000000137 0.0 0.0
4.100000000000012 0.0 0.0
3.899999999999888 0.0 0.0
3.69999999999974 0.0 0.0
3.500000000000046 0.0 0.0
3.299999999999965 0.0 0.0
3.099999999999817 0.0 0.0
2.900000000000066 0.0 0.0
2.699999999999793 0.0 0.0
2.500000000000064 0.0 0.0
2.299999999999823 0.0 0.0
[...]
POINT_DATA 2790
VECTORS vector double
1.0 0.0 0.0
0.0 0.0 0.0
0.0 0.0 0.0
0.0 0.0 0.0
1.55900918169 0.0 0.0
1.0 0.0 0.0
0.0 0.0 0.0
0.0 0.0 0.0
0.0 0.0 0.0
0.0 0.0 0.0
0.0 0.0 0.0
0.0 0.0 0.0
0.0 0.0 0.0
0.0 0.0 0.0
0.0 0.0 0.0
0.0 0.0 0.0
0.0 0.0 0.0
0.0 0.0 0.0
0.0 0.0 0.0
0.0 0.0 0.0
0.0 0.0 0.0
0.0 0.0 0.0
0.0 0.0 0.0
0.0 0.0 0.0
0.0 0.0 0.0
0.0 0.0 0.0
0.0 0.0 0.0
0.0 0.0 0.0
0.0 0.0 0.0
0.0 0.0 0.0
0.0 0.0 0.0
0.0 0.0 0.0
0.0 0.0 0.0
0.0 0.0 0.0
0.0 0.0 0.0
0.0 0.0 0.0
0.0 0.0 0.0
0.0 0.0 0.0
0.0 0.0 0.0
0.0 0.0 0.0
0.0 0.0 0.0
0.0 0.0 0.0
0.0 0.0 0.0
0.0 0.0 0.0
0.0 0.0 0.0
0.0 0.0 0.0
0.0 0.0 0.0
0.0 0.0 0.0
0.0 0.0 0.0
0.0 0.0 0.0
0.0 0.0 0.0
0.0 0.0 0.0
0.0 0.0 0.0
0.0 0.0 0.0
0.0 0.0 0.0
0.0 0.0 0.0
0.0 0.0 0.0
0.0 0.0 0.0
0.0 0.0 0.0
0.0 0.0 0.0
0.0 0.0 0.0
0.0 0.0 0.0
0.0 0.0 0.0
0.0 0.0 0.0
0.0 0.0 0.0
0.0 0.0 0.0
0.0 0.0 0.0
0.0 0.0 0.0
0.0 0.0 0.0
0.0 0.0 0.0
0.0 0.0 0.0
0.0 0.0 0.0
0.0 0.0 0.0
0.0 0.0 0.0
0.0 0.0 0.0
0.0 0.0 0.0
0.0 0.0 0.0
0.0 0.0 0.0
0.0 0.0 0.0
0.0 0.0 0.0
0.0 0.0 0.0
0.0 0.0 0.0
0.0 0.0 0.0
0.0 0.0 0.0
0.0 0.0 0.0
0.0 0.0 0.0
0.0 0.0 0.0
0.0 0.0 0.0
0.0 0.0 0.0
0.0 0.0 0.0
0.0 0.0 0.0
0.0 0.0 0.0
0.0 0.0 0.0
0.0 0.0 0.0
0.0 0.0 0.0
0.0 0.0 0.0
0.0 0.0 0.0
0.0 0.0 0.0
0.0 0.0 0.0
0.0 0.0 0.0
0.0 0.0 0.0
0.0 0.0 0.0
0.0 0.0 0.0
0.0 0.0 0.0
0.0 0.0 0.0
0.0 0.0 0.0
0.0 0.0 0.0
0.0 0.0 0.0
0.0 0.0 0.0
0.0 0.0 0.0
0.0 0.0 0.0
0.0 0.0 0.0
0.0 0.0 0.0
0.0 0.0 0.0
0.0 0.0 0.0
0.0 0.0 0.0
0.0 0.0 0.0
0.0 0.0 0.0
0.0 0.0 0.0
0.0 0.0 0.0
0.0 0.0 0.0
0.0 0.0 0.0
0.0 0.0 0.0
0.0 0.0 0.0
0.0 0.0 0.0
0.0 0.0 0.0
0.0 0.0 0.0
0.0 0.0 0.0
0.0 0.0 0.0
0.0 0.0 0.0
0.0 0.0 0.0
0.0 0.0 0.0
0.0 0.0 0.0
0.0 0.0 0.0
0.0 0.0 0.0
0.0 0.0 0.0
0.0 0.0 0.0
0.0 0.0 0.0
0.0 0.0 0.0
0.0 0.0 0.0
0.0 0.0 0.0
0.0 0.0 0.0
0.0 0.0 0.0
0.0 0.0 0.0
0.0 0.0 0.0
0.0 0.0 0.0
0.0 0.0 0.0
0.0 0.0 0.0
0.0 0.0 0.0
0.0 0.0 0.0
0.0 0.0 0.0
0.0 0.0 0.0
0.0 0.0 0.0
0.0 0.0 0.0
0.0 0.0 0.0
0.0 0.0 0.0
0.0 0.0 0.0
0.0 0.0 0.0
0.0 0.0 0.0
0.0 0.0 0.0
0.0 0.0 0.0
0.0 0.0 0.0
0.0 0.0 0.0
0.0 0.0 0.0
0.0 0.0 0.0
0.0 0.0 0.0
0.0 0.0 0.0
0.0 0.0 0.0
0.0 0.0 0.0
0.0 0.0 0.0
0.0 0.0 0.0
0.0 0.0 0.0
0.0 0.0 0.0
0.0 0.0 0.0
0.0 0.0 0.0
0.0 0.0 0.0
0.0 0.0 0.0
0.0 0.0 0.0
0.0 0.0 0.0
0.0 0.0 0.0
0.0 0.0 0.0
0.0 0.0 0.0
0.0 0.0 0.0
0.0 0.0 0.0
0.0 0.0 0.0
0.0 0.0 0.0
0.0 0.0 0.0
0.0 0.0 0.0
0.0 0.0 0.0
0.0 0.0 0.0
0.0 0.0 0.0
0.0 0.0 0.0
0.0 0.0 0.0
0.0 0.0 0.0
0.0 0.0 0.0
0.0 0.0 0.0
0.0 0.0 0.0
0.0 0.0 0.0
0.0 0.0 0.0
0.0 0.0 0.0
0.0 0.0 0.0
0.0 0.0 0.0
0.0 0.0 0.0
0.0 0.0 0.0
0.0 0.0 0.0
0.551833200949 1.1602297911e-05 0.0
0.968437369445 0.00021371054521 0.0
1.25351415411 -0.000105903239898 0.0
1.43440822728 -0.000164878707829 0.0
0.282161688353 0.000409265111935 0.0
0.765402050458 0.00134883847292 0.0
1.11583919669 0.000132599791326 0.0
1.34647079895 -0.000655723285903 0.0
1.49563181403 -0.000257601910247 0.0
1.5581704403 0.0 0.0
1.55841926401 0.0 0.0
1.55867638974 0.0 0.0
1.55900245738 0.0 0.0
1.55828919962 0.0 0.0
1.55936228996 0.0 0.0
1.55947936692 0.0 0.0
1.55889256523 0.0 0.0
1.55944178056 0.0 0.0
1.55946166869 0.0 0.0
1.55881008124 0.0 0.0
1.55914901222 0.0 0.0
1.55881288278 0.0 0.0
1.55755763246 0.0 0.0
1.55559276782 0.0 0.0
1.55425462933 0.0 0.0
1.55358024406 0.0 0.0
1.55080026042 0.0 0.0
1.54867530496 0.0 0.0
1.54749371269 0.0 0.0
1.54439006974 0.0 0.0
1.54216771888 0.0 0.0
1.54095502135 0.0 0.0
1.53778677732 0.0 0.0
1.53548139064 0.0 0.0
1.53414668554 0.0 0.0
1.53078522486 0.0 0.0
1.52824613065 0.0 0.0
1.52667471367 0.0 0.0
1.52304195931 0.0 0.0
1.52020626774 0.0 0.0
1.51834610769 0.0 0.0
1.51439434345 0.0 0.0
1.51121731472 0.0 0.0
1.50904174665 0.0 0.0
1.50471444741 0.0 0.0
1.50119444279 0.0 0.0
1.49874032799 0.0 0.0
1.49371514139 0.0 0.0
1.48959472642 0.0 0.0
1.48684964073 0.0 0.0
1.48187312435 0.0 0.0
1.4774664988 0.0 0.0
1.47441840215 0.0 0.0
1.46911492933 0.0 0.0
1.46438266161 0.0 0.0
1.46107712185 0.0 0.0
1.45550517728 0.0 0.0
1.4504290477 0.0 0.0
1.44680475434 0.0 0.0
1.4410582011 0.0 0.0
1.43569653981 0.0 0.0
1.43158589528 0.0 0.0
1.42838192681 0.0 0.0
1.42194956283 0.0 0.0
1.41538164958 0.0 0.0
1.40980012111 0.0 0.0
1.40501872027 0.0 0.0
1.39872587122 0.0 0.0
1.39295557464 0.0 0.0
1.38854212062 0.0 0.0
1.38195537417 0.0 0.0
1.37583828668 0.0 0.0
1.37117717463 0.0 0.0
1.36425898896 0.0 0.0
1.35790308 0.0 0.0
1.35293227064 0.0 0.0
1.34582262829 0.0 0.0
1.33908702936 0.0 0.0
1.33349247956 0.0 0.0
1.32822410508 0.0 0.0
1.32002542143 0.0 0.0
1.31313206994 0.0 0.0
1.30541184734 0.0 0.0
1.29697372216 0.0 0.0
1.2897297354 0.0 0.0
1.28076812464 0.0 0.0
1.27196582584 0.0 0.0
1.26388005869 0.0 0.0
1.25592634519 0.0 0.0
1.24681748394 0.0 0.0
1.23802092338 0.0 0.0
1.22924810085 0.0 0.0
1.21962639019 0.0 0.0
1.20998893356 0.0 0.0
1.20010382378 0.0 0.0
1.18973969609 0.0 0.0
1.17901431568 0.0 0.0
1.16777909757 0.0 0.0
1.15627890727 0.0 0.0
1.14380812342 0.0 0.0
1.1303189298 0.0 0.0
1.11634602802 0.0 0.0
1.10038012571 0.0 0.0
1.08254920101 0.0 0.0
1.0631826066 0.0 0.0
1.04112303695 0.0 0.0
1.02010989941 0.0 0.0
1.00388803837 0.0 0.0
1.55826563349 0.0 0.0
1.55763282816 0.0 0.0
1.55918068553 0.0 0.0
1.55783988542 0.0 0.0
1.5579198287 0.0 0.0
1.55842204225 0.0 0.0
1.56003431131 0.0 0.0
1.55856618355 0.0 0.0
1.55849722361 0.0 0.0
1.55999813564 0.0 0.0
1.55849081483 0.0 0.0
1.55828006319 0.0 0.0
1.55952496737 0.0 0.0
1.55753378903 0.0 0.0
1.55663000483 0.0 0.0
1.55432981673 0.0 0.0
1.55404383722 0.0 0.0
1.55217529801 0.0 0.0
1.5489644218 0.0 0.0
1.54812636376 0.0 0.0
1.54587620297 0.0 0.0
1.54246496178 0.0 0.0
1.54159265848 0.0 0.0
1.53931213933 0.0 0.0
1.53580968787 0.0 0.0
1.53484361382 0.0 0.0
1.53238973626 0.0 0.0
1.5286601309 0.0 0.0
1.52747556336 0.0 0.0
1.52475140464 0.0 0.0
1.52072635892 0.0 0.0
1.51927184812 0.0 0.0
1.51622841316 0.0 0.0
1.51186021906 0.0 0.0
1.51009829227 0.0 0.0
1.50671289832 0.0 0.0
1.50202264647 0.0 0.0
1.49988698595 0.0 0.0
1.49604856558 0.0 0.0
1.49075311271 0.0 0.0
1.48783574754 0.0 0.0
1.48435281346 0.0 0.0
1.47877024144 0.0 0.0
1.47553132709 0.0 0.0
1.4717425934 0.0 0.0
1.46581372226 0.0 0.0
1.46229548338 0.0 0.0
1.45822982719 0.0 0.0
1.45201571677 0.0 0.0
1.44811557985 0.0 0.0
1.44386724833 0.0 0.0
1.43742401363 0.0 0.0
1.43315923789 0.0 0.0
1.42861467913 0.0 0.0
1.42417548238 0.0 0.0
1.41824282733 0.0 0.0
1.41155287899 0.0 0.0
1.40694712647 0.0 0.0
1.40174340744 0.0 0.0
1.39498388912 0.0 0.0
1.39025646444 0.0 0.0
1.38519990403 0.0 0.0
1.37793833407 0.0 0.0
1.37300846522 0.0 0.0
1.36765345839 0.0 0.0
1.36014098676 0.0 0.0
1.35492206065 0.0 0.0
1.34932358768 0.0 0.0
1.34160349186 0.0 0.0
1.33591147058 0.0 0.0
1.32964723179 0.0 0.0
1.32318469659 0.0 0.0
1.31596524803 0.0 0.0
1.30862713925 0.0 0.0
1.30064582876 0.0 0.0
1.29276738082 0.0 0.0
1.28402955549 0.0 0.0
1.27599100743 0.0 0.0
1.26743206226 0.0 0.0
1.25980551729 0.0 0.0
1.25089342711 0.0 0.0
1.24203291425 0.0 0.0
1.23350337135 0.0 0.0
1.22407738845 0.0 0.0
1.21459860535 0.0 0.0
1.20491311216 0.0 0.0
1.19470307332 0.0 0.0
1.18435433489 0.0 0.0
1.17329622319 0.0 0.0
1.16198102832 0.0 0.0
1.15022681088 0.0 0.0
1.13701871274 0.0 0.0
1.12346627825 0.0 0.0
1.10875435799 0.0 0.0
1.09150233182 0.0 0.0
1.07322553509 0.0 0.0
1.05266483629 0.0 0.0
1.03061166053 0.0 0.0
1.01156686604 0.0 0.0
0.998781262303 0.0 0.0
1.0 0.0 0.0
1.0 0.0 0.0
1.0 0.0 0.0
1.0 0.0 0.0
1.0 0.0 0.0
1.0 0.0 0.0
1.0 0.0 0.0
1.0 0.0 0.0
1.0 0.0 0.0
1.1661813694 -0.0714504974233 0.0
1.22384630068 -0.0464717860032 0.0
1.22836053476 -0.0314374747308 0.0
1.09509028138 5.45081972775e-05 0.0
1.13098033728 -9.09247555383e-05 0.0
1.12990946747 -2.05982210356e-05 0.0
1.12703386213 -5.97703877025e-05 0.0
1.12548061055 -0.000436069476299 0.0
1.12660912201 -0.000972888530224 0.0
1.12802398573 -0.0013318725926 0.0
1.12958011034 -0.00152088177613 0.0
1.13126811825 -0.00166045995377 0.0
1.13318687659 -0.00182360894132 0.0
1.13538949393 -0.00203049985514 0.0
1.1379170284 -0.0022748414715 0.0
1.09326868555 -0.00232104221512 0.0
1.09689697848 -0.00254905406972 0.0
1.10097612136 -0.00285154777472 0.0
1.10542183312 -0.00319601004726 0.0
1.16127711144 -0.00451072320059 0.0
1.22174029433 -0.0230374337859 0.0
1.13224841991 -0.00457570788831 0.0
1.11025762865 -0.00343743072594 0.0
1.20880695286 -0.0176920363859 0.0
1.13952624322 -0.00512371379533 0.0
1.15189338468 -0.00406786107345 0.0
1.1956540037 -0.0139710047799 0.0
1.14779955397 -0.00559439975471 0.0
1.18334143368 -0.0114487395767 0.0
1.18519566616 -0.0068688122583 0.0
1.19594650323 -0.0107247943375 0.0
1.15823657495 -0.00448217674962 0.0
1.17319690095 -0.00994045937209 0.0
0.893421600366 -0.000557749980288 0.0
1.20434969708 -0.139671569001 0.0
1.29362207542 -0.0107756994151 0.0
1.28157621839 -0.0126006182778 0.0
1.31251299105 -0.00731404104589 0.0
1.26701549208 -0.0148192730726 0.0
1.31354410991 -0.00650263541039 0.0
1.2171543884 -0.0210486512705 0.0
1.24643153044 -0.0175991066779 0.0
1.31597035581 -0.0059868418007 0.0
1.31770790849 -0.00542221305987 0.0
1.32101434677 -0.00475383934655 0.0
1.32204331244 -0.00434807989548 0.0
1.32263601292 -0.00403682995595 0.0
1.32309282501 -0.00365709048366 0.0
1.32331349529 -0.00330329499069 0.0
1.31444793399 -0.00301629299355 0.0
1.31433918021 -0.00264287725882 0.0
1.31432110274 -0.0023513430696 0.0
1.20886841389 -0.051892708024 0.0
1.31424690571 -0.00211564414207 0.0
1.31425910787 -0.00192728939726 0.0
1.31430089726 -0.00177512826053 0.0
1.17594242205 -0.0255789656306 0.0
1.31412433259 -0.00156389104625 0.0
1.14035864631 -0.0287502782619 0.0
1.12791126002 -0.0334680667342 0.0
1.31178837719 -0.00101547815793 0.0
1.31131962537 -0.000434574334024 0.0
0.850858168844 -2.99016167086e-05 0.0
1.3109633107 -1.97568202724e-06 0.0
0.850479241797 -0.000209732547887 0.0
0.976451843528 -0.00722385042647 0.0
0.996163894144 -0.00859746049221 0.0
0.93591533801 -0.00328502762358 0.0
1.08913215545 -0.01955342465 0.0
1.01992009147 -0.0109484019879 0.0
0.923655182711 -0.0035367001389 0.0
1.04999876079 -0.0144955884938 0.0
0.91343034303 -0.00326745463713 0.0
0.904142661475 -0.00280941452496 0.0
0.89612242537 -0.00227392580455 0.0
0.889583553589 -0.00240667736758 0.0
0.88355661945 -0.00216208134049 0.0
0.878058416184 -0.00193494013935 0.0
0.873139157594 -0.00174141260066 0.0
0.868857287633 -0.0014700304784 0.0
0.86499964996 -0.00136103234703 0.0
0.861649809545 -0.00119776596771 0.0
0.858606651041 -0.00108699914633 0.0
0.855844902074 -0.00100238841978 0.0
0.853359705436 -0.000906435531968 0.0
1.31515499629 -2.2729369432e-05 0.0
0.851267599311 -0.000727778017779 0.0
0.849824168947 -0.000438389171791 0.0
0.849281741009 -0.000136223367261 0.0
0.849283022161 3.03150950222e-05 0.0
1.33156191037 8.37332997989e-05 0.0
1.03527538765 -0.0353285740249 0.0
1.33655233034 0.000358047182251 0.0
1.3205987661 -0.00507482749728 0.0
1.31366905435 -0.00841113349228 0.0
1.3048437962 -0.0096807425908 0.0
1.33154828169 -0.00533420961505 0.0
0.841355580178 -0.00331638935511 0.0
0.8809811416 -0.00232791156231 0.0
0.897935535665 -0.00350944236408 0.0
0.907393783219 -0.00793110169374 0.0
1.17826379453 -0.0767133587552 0.0
1.04001059208 -0.0278689149979 0.0
1.33853327325 -0.000187129973567 0.0
1.38610571116 -0.00293393854626 0.0
1.38303018482 -0.00325885686131 0.0
1.13767565258 -0.0209633959608 0.0
1.37593933015 -0.00282803563018 0.0
1.07462491442 -0.0283919086931 0.0
1.37938378197 -0.00355643821579 0.0
1.37770852955 -0.00251807884052 0.0
1.37924048996 -0.0022496392785 0.0
1.37069046502 -0.00396509847866 0.0
0.952300654889 -0.015988985885 0.0
1.38068818278 -0.00202827843313 0.0
1.36666289757 -0.00427033572337 0.0
1.38208021763 -0.0018534936954 0.0
1.38332919385 -0.00171693688271 0.0
1.18386186795 -0.0169334676586 0.0
1.38409602471 -0.00143837453498 0.0
1.37452213963 -0.000782910148599 0.0
1.41988290437 -0.000199977336142 0.0
0.628039078366 0.000138586240924 0.0
1.35555726834 -0.00481588024519 0.0
1.4165735281 -5.1553925547e-05 0.0
0.643332596264 8.97446346578e-05 0.0
0.602087294444 0.000448931625269 0.0
1.41659322964 -4.91769706666e-05 0.0
0.625548420378 0.000291723196883 0.0
1.35102127438 -0.00514918874858 0.0
1.22024323897 -0.0143642986113 0.0
0.625348528381 0.000163816602367 0.0
0.625906632005 1.18879551495e-05 0.0
0.627181308271 -7.20148729491e-05 0.0
0.628996317706 -0.000114708646407 0.0
1.34424154211 -0.00555421579453 0.0
1.25004057226 -0.0124684533673 0.0
0.631121383459 -0.000141523831652 0.0
0.633481998523 -0.00018032939908 0.0
0.636114781384 -0.000243692403968 0.0
0.639005331945 -0.000291659972876 0.0
0.643019597221 -0.000514815098539 0.0
1.33570796128 -0.00609280858776 0.0
1.27366189676 -0.0108409372645 0.0
0.646865690026 -0.000590966016143 0.0
0.651265501393 -0.000692788498753 0.0
0.522312477838 -0.000608474433872 0.0
0.656234089289 -0.000809557703107 0.0
0.842864920558 -0.00834659141283 0.0
0.680826437866 -0.000989301428213 0.0
0.804314497923 -0.00594890029356 0.0
0.689046062676 -0.00118233591121 0.0
0.661466892134 -0.000870214801404 0.0
0.775749677777 -0.00445034759839 0.0
0.697655974005 -0.00103616672986 0.0
0.753485463548 -0.00343495053656 0.0
0.545799980748 0.000208869770002 0.0
0.631567887552 -0.00242428914015 0.0
0.564979132453 -0.00030127305222 0.0
1.32391693467 -0.0061059288015 0.0
1.29281353635 -0.00959283941267 0.0
1.30607835245 -0.00885171556355 0.0
1.33030362051 -0.00688605855489 0.0
1.35967684425 -0.00463860624728 0.0
1.36781692616 -0.0044049048848 0.0
0.6499677041 -0.00280176791704 0.0
0.861953058004 -0.00776212062199 0.0
1.41887401608 -6.25605440476e-05 0.0
1.04237035794 -0.0577799088886 0.0
1.12663974116 -4.01129289229e-05 0.0
1.19225251553 -0.000134033560238 0.0
1.04214876087 -0.0184094376568 0.0
0.524516842379 0.000196875687707 0.0
1.10470436834 -0.0707671378916 0.0
1.03009650737 -0.0587860121957 0.0
0.573143849533 -0.00108387390082 0.0
1.42840733567 -0.00250909727527 0.0
1.42401239545 -0.00282472292157 0.0
1.43148852594 -0.00211990112835 0.0
1.41818607143 -0.00306902933736 0.0
1.27550009491 -0.293354876763 0.0
1.411227754 -0.00336839337477 0.0
1.43546048617 -0.00187514949335 0.0
1.40417915366 -0.0034985580081 0.0
1.43898668982 -0.00166902361649 0.0
1.44220552713 -0.00149794639865 0.0
1.19576596422 -0.00999162438345 0.0
1.37341803125 -0.00421967162543 0.0
1.10812331468 -0.0152025679112 0.0
1.36320590874 -0.00453425910664 0.0
1.22967075913 -0.00884319766634 0.0
1.44517917733 -0.0013737581563 0.0
1.35186132028 -0.0048070933385 0.0
1.25847027813 -0.00780883054358 0.0
1.15601241649 -0.011720783405 0.0
1.28294334491 -0.00700585711828 0.0
1.44788303007 -0.00130084185662 0.0
1.44879267397 -0.0010447667667 0.0
1.44878017987 -0.000470454820755 0.0
1.44603886793 0.0002632968491 0.0
1.44756631688 0.000303218351295 0.0
1.44892697032 0.000250287504895 0.0
1.16268672904 -0.00437748251477 0.0
0.757039363654 -0.00972703315935 0.0
0.811053485449 -0.0163201096595 0.0
0.869487136749 -0.0226482205544 0.0
0.725824563398 -0.00876341127832 0.0
0.493492278288 -0.00027021444542 0.0
0.493459229401 -0.000317914846463 0.0
0.493943703098 -0.000420891560237 0.0
1.20810217573 -0.00844481001888 0.0
0.495102665834 -0.00051290557964 0.0
0.496754968605 -0.000559974955519 0.0
0.498691844877 -0.000585732309342 0.0
1.13073970501 0.000244497699849 0.0
1.21240482949 -0.0108606712324 0.0
0.500821858862 -0.000617969560376 0.0
1.13096846507 0.000204070076836 0.0
0.503173099547 -0.000664678366692 0.0
0.505812855828 -0.000744215353424 0.0
0.508604973243 -0.000404432508168 0.0
0.511893591211 -0.000466466991767 0.0
1.11816884212 6.42972270423e-05 0.0
0.515696383328 -0.000526547048972 0.0
1.11824122378 0.00022062929152 0.0
0.501458074733 -7.0989473187e-05 0.0
0.519971953093 -0.000613336161835 0.0
1.11888370861 -0.000375656809186 0.0
0.503608788276 -0.000368549346305 0.0
1.12063266762 -0.00080342555661 0.0
0.500259624016 -0.000641070226959 0.0
0.524720437927 -0.000769085078828 0.0
1.12216322447 -0.0010334197199 0.0
0.500876753463 -0.000532129644547 0.0
0.51555131967 -0.000368361472385 0.0
1.12378614835 -0.00116598890658 0.0
0.696904302031 -0.00800870121542 0.0
1.12559404981 -0.00130479005698 0.0
1.12768716258 -0.00148251444388 0.0
0.543364888349 -0.000619964812127 0.0
1.12999175708 -0.00170485838453 0.0
1.13000096254 -0.00209313103021 0.0
1.22960413583 -0.0262855464484 0.0
0.660463272821 -0.00541247384473 0.0
0.550335324792 -0.0010765656925 0.0
1.13104037635 -0.00222357387022 0.0
1.13467050864 -0.00251666996364 0.0
0.634163937634 -0.00416939696645 0.0
0.55783908974 -0.00115206420204 0.0
1.13863349138 -0.00282605168172 0.0
0.614201219815 -0.0033375953243 0.0
0.541260242592 -0.000649805834482 0.0
1.1429216139 -0.00314033894713 0.0
1.14517623466 -0.00339664378068 0.0
0.584502717055 -0.00238677162518 0.0
1.15640965255 -0.00482710592372 0.0
1.16282322962 -0.00421313946027 0.0
1.16916273993 -0.00467328784729 0.0
1.22498803961 -0.0205001008204 0.0
1.17614060567 -0.00515759903149 0.0
1.21738476466 -0.0163940765313 0.0
1.18072127587 -0.00583745285118 0.0
1.20908306208 -0.0134822353722 0.0
1.19801073378 -0.0113865410807 0.0
1.22186952064 -0.0374328760532 0.0
1.19975870184 -0.0491608399324 0.0
1.18395087449 -0.0544515263688 0.0
1.19589428802 -0.00993450415377 0.0
1.22535398696 -0.0344538524833 0.0
1.22745000133 -0.0268553690731 0.0
1.2047921981 -0.0121194928719 0.0
1.17247774971 -0.00711642861777 0.0
1.21436388451 -0.0152824198918 0.0
1.16435624616 -0.00649747535906 0.0
1.22299120011 -0.0197605077033 0.0
1.15775077547 -0.00594154249185 0.0
0.609405683225 -0.00214498058393 0.0
1.15788328251 -0.00507084006822 0.0
0.629193763732 -0.00301147656601 0.0
0.567390811148 -0.00144669001792 0.0
0.700197964191 -0.00742470253465 0.0
1.13892383884 -0.00463473759087 0.0
0.651397711442 -0.0038891301625 0.0
0.564220797115 -0.00172306822857 0.0
1.13489573817 -0.00441105271262 0.0
1.1307660418 -0.00403330132562 0.0
0.681046371489 -0.00520277364947 0.0
0.55694032707 -0.00160031434195 0.0
1.12698661344 -0.00367609733551 0.0
1.44493847161 -0.000279967132375 0.0
1.12350670626 -0.00334061095272 0.0
1.13356927149 -0.00279476796714 0.0
0.527530545092 -0.000391844158318 0.0
1.13155705448 -0.00253650640476 0.0
1.12942584544 -0.00230653751751 0.0
1.12753862026 -0.00212982955292 0.0
1.12590070299 -0.00198781471042 0.0
1.12442036509 -0.00183491494512 0.0
1.12302702924 -0.00155552289398 0.0
1.12145311619 -0.00113681477505 0.0
1.12307098586 -0.00011796122707 0.0
1.12147600171 -0.000217272853708 0.0
1.12205863619 -0.000234793799563 0.0
1.11914999426 -0.000446970989026 0.0
1.38276793818 -0.00396988460288 0.0
1.44808897027 -0.000550814521866 0.0
0.536413663154 -0.00138129339344 0.0
0.526809474997 -0.00139883090219 0.0
0.52217916467 -0.00126801853708 0.0
0.51804654525 -0.00118055263042 0.0
0.514381413798 -0.00110814824909 0.0
1.44807159854 -0.000971845418792 0.0
0.511330164906 -0.000710669527345 0.0
0.508566460654 -0.000747372264745 0.0
0.506024948473 -0.000669214517038 0.0
0.503754328938 -0.000626390722564 0.0
0.501689341766 -0.000597440857496 0.0
0.499836048857 -0.000567909378836 0.0
1.44772916072 -0.00141571012446 0.0
0.498341030501 -0.000515879388114 0.0
0.497404217721 -0.000404505910569 0.0
0.497136530184 -0.00030720859236 0.0
0.500541773741 8.59793955417e-05 0.0
1.44514947651 -0.00152014155287 0.0
1.44221841102 -0.00162013302986 0.0
1.31129283496 -0.00705448560802 0.0
1.43907227066 -0.00177785422771 0.0
1.332658547 -0.00505035305535 0.0
0.895599094851 -6.594699208e-05 0.0
1.43565549142 -0.00197247832838 0.0
1.00668957424 -0.0136950515122 0.0
1.08442334607 -0.0177588788461 0.0
1.44489395086 -0.000271190583492 0.0
1.43186252904 -0.00219953192073 0.0
1.21567700699 -0.0953240303148 0.0
1.42781095241 -0.00241383897467 0.0
1.4378840861 -0.00201931710651 0.0
1.38933711545 -0.00344192713306 0.0
1.43119552146 -0.00222402437676 0.0
1.42371018015 -0.00242629877835 0.0
1.44314026957 -2.27702779274e-05 0.0
1.41506497892 -0.00262188636476 0.0
1.40644226391 -0.00273938258907 0.0
1.13475634673 -0.0105591429053 0.0
1.17659731925 -0.00884363917226 0.0
1.38040306823 -0.00312348532403 0.0
1.34439315749 -0.00382866871987 0.0
1.29198219804 -0.00563776107597 0.0
1.36960956745 -0.00338761144662 0.0
1.2121187728 -0.0078017236086 0.0