# vtk DataFile Version 2.0
2D Simulation Python
ASCII
DATASET UNSTRUCTURED_GRID
FIELD FieldData 1
NODES 1 2 int
1869 3447

POINTS 1869 double
0.0 1.0 0.0
0.0 3.0 0.0
40.0 3.0 0.0
40.0 0.0 0.0
4.0 0.0 0.0
4.0 1.0 0.0
0.0 1.285714285716665 0.0
0.0 1.571428571430556 0.0
0.0 1.857142857144446 0.0
0.0 2.142857142858336 0.0
0.0 2.428571428572225 0.0
0.0 2.714285714286111 0.0
0.2985074626863422 3.0 0.0
0.5970149253727002 3.0 0.0
0.8955223880590588 3.0 0.0
1.194029850745382 3.0 0.0
1.492537313431632 3.0 0.0
1.791044776117834 3.0 0.0
2.089552238804087 3.0 0.0
2.388059701490418 3.0 0.0
2.686567164176777 3.0 0.0
2.985074626863136 3.0 0.0
3.283582089549494 3.0 0.0
3.582089552235852 3.0 0.0
3.880597014922211 3.0 0.0
4.179104477608569 3.0 0.0
4.477611940294928 3.0 0.0
4.776119402981237 3.0 0.0
5.074626865667346 3.0 0.0
5.373134328353175 3.0 0.0
5.671641791038871 3.0 0.0
5.970149253724567 3.0 0.0
6.268656716410264 3.0 0.0
6.56716417909596 3.0 0.0
6.865671641781655 3.0 0.0
7.164179104467352 3.0 0.0
7.462686567153049 3.0 0.0
7.761194029838745 3.0 0.0
8.05970149252444 3.0 0.0
8.358208955210136 3.0 0.0
8.656716417895833 3.0 0.0
8.95522388058153 3.0 0.0
9.253731343267225 3.0 0.0
9.552238805952921 3.0 0.0
9.850746268638618 3.0 0.0
10.14925373132431 3.0 0.0
10.44776119401001 3.0 0.0
10.7462686566957 3.0 0.0
11.0447761193814 3.0 0.0
11.34328358206709 3.0 0.0
11.64179104475279 3.0 0.0
11.94029850743848 3.0 0.0
12.23880597012418 3.0 0.0
12.53731343280987 3.0 0.0
12.83582089549557 3.0 0.0
13.13432835818127 3.0 0.0
13.43283582086696 3.0 0.0
13.73134328355265 3.0 0.0
14.02985074623835 3.0 0.0
14.32835820892405 3.0 0.0
14.62686567160974 3.0 0.0
14.92537313429544 3.0 0.0
15.22388059698113 3.0 0.0
15.52238805966683 3.0 0.0
15.82089552235252 3.0 0.0
16.11940298503862 3.0 0.0
16.41791044772535 3.0 0.0
16.71641791041237 3.0 0.0
17.01492537309939 3.0 0.0
17.31343283578641 3.0 0.0
17.61194029847344 3.0 0.0
17.91044776116046 3.0 0.0
18.20895522384748 3.0 0.0
18.5074626865345 3.0 0.0
18.80597014922152 3.0 0.0
19.10447761190854 3.0 0.0
19.40298507459556 3.0 0.0
19.70149253728258 3.0 0.0
19.9999999999696 3.0 0.0
20.29850746265662 3.0 0.0
20.59701492534364 3.0 0.0
20.89552238803066 3.0 0.0
21.19402985071768 3.0 0.0
21.49253731340471 3.0 0.0
21.79104477609173 3.0 0.0
22.08955223877875 3.0 0.0
22.38805970146577 3.0 0.0
22.68656716415279 3.0 0.0
22.98507462683981 3.0 0.0
23.28358208952683 3.0 0.0
23.58208955221385 3.0 0.0
23.88059701490088 3.0 0.0
24.1791044775879 3.0 0.0
24.47761194027491 3.0 0.0
24.77611940296193 3.0 0.0
25.07462686564896 3.0 0.0
25.37313432833598 3.0 0.0
25.671641791023 3.0 0.0
25.97014925371002 3.0 0.0
26.26865671639704 3.0 0.0
26.56716417908406 3.0 0.0
26.86567164177108 3.0 0.0
27.1641791044581 3.0 0.0
27.46268656714512 3.0 0.0
27.76119402983214 3.0 0.0
28.05970149251916 3.0 0.0
28.35820895520619 3.0 0.0
28.65671641789321 3.0 0.0
28.95522388058023 3.0 0.0
29.25373134326725 3.0 0.0
29.55223880595426 3.0 0.0
29.85074626864129 3.0 0.0
30.14925373132831 3.0 0.0
30.44776119401533 3.0 0.0
30.74626865670236 3.0 0.0
31.04477611938937 3.0 0.0
31.34328358207639 3.0 0.0
31.64179104476341 3.0 0.0
31.94029850745043 3.0 0.0
32.23880597013746 3.0 0.0
32.53731343282448 3.0 0.0
32.8358208955115 3.0 0.0
33.13432835819852 3.0 0.0
33.43283582088554 3.0 0.0
33.73134328357256 3.0 0.0
34.02985074625958 3.0 0.0
34.3283582089466 3.0 0.0
34.62686567163362 3.0 0.0
34.92537313432064 3.0 0.0
35.22388059700766 3.0 0.0
35.52238805969468 3.0 0.0
35.8208955223817 3.0 0.0
36.11940298506872 3.0 0.0
36.41791044775574 3.0 0.0
36.71641791044276 3.0 0.0
37.01492537312978 3.0 0.0
37.31343283581681 3.0 0.0
37.61194029850382 3.0 0.0
37.91044776119085 3.0 0.0
38.20895522387787 3.0 0.0
38.5074626865649 3.0 0.0
38.80597014925192 3.0 0.0
39.10447761193894 3.0 0.0
39.40298507462596 3.0 0.0
39.70149253731298 3.0 0.0
40.0 2.700000000001935 0.0
40.0 2.400000000003002 0.0
40.0 2.100000000002161 0.0
40.0 1.800000000002828 0.0
40.0 1.500000000004164 0.0
40.0 1.200000000003365 0.0
40.0 0.9000000000025241 0.0
40.0 0.6000000000016827 0.0
40.0 0.3000000000008414 0.0
39.70000000000115 0.0 0.0
39.40000000000229 0.0 0.0
39.10000000000343 0.0 0.0
38.80000000000458 0.0 0.0
38.50000000000572 0.0 0.0
38.20000000000687 0.0 0.0
37.90000000000801 0.0 0.0
37.60000000000915 0.0 0.0
37.3000000000103 0.0 0.0
37.00000000001144 0.0 0.0
36.70000000001259 0.0 0.0
36.40000000001373 0.0 0.0
36.10000000001487 0.0 0.0
35.80000000001602 0.0 0.0
35.50000000001717 0.0 0.0
35.20000000001831 0.0 0.0
34.90000000001945 0.0 0.0
34.6000000000206 0.0 0.0
34.30000000002174 0.0 0.0
34.00000000002289 0.0 0.0
33.70000000002403 0.0 0.0
33.40000000002517 0.0 0.0
33.10000000002632 0.0 0.0
32.80000000002747 0.0 0.0
32.50000000002861 0.0 0.0
32.20000000002975 0.0 0.0
31.9000000000309 0.0 0.0
31.60000000003204 0.0 0.0
31.30000000003319 0.0 0.0
31.00000000003433 0.0 0.0
30.70000000003548 0.0 0.0
30.40000000003662 0.0 0.0
30.10000000003777 0.0 0.0
29.80000000003891 0.0 0.0
29.50000000004005 0.0 0.0
29.2000000000412 0.0 0.0
28.90000000004234 0.0 0.0
28.60000000004348 0.0 0.0
28.30000000004463 0.0 0.0
28.00000000004577 0.0 0.0
27.70000000004692 0.0 0.0
27.40000000004806 0.0 0.0
27.1000000000492 0.0 0.0
26.80000000005035 0.0 0.0
26.50000000005149 0.0 0.0
26.20000000005263 0.0 0.0
25.90000000005378 0.0 0.0
25.60000000005492 0.0 0.0
25.30000000005606 0.0 0.0
25.00000000005721 0.0 0.0
24.70000000005835 0.0 0.0
24.40000000005949 0.0 0.0
24.10000000006064 0.0 0.0
23.80000000006178 0.0 0.0
23.50000000006293 0.0 0.0
23.20000000006407 0.0 0.0
22.90000000006521 0.0 0.0
22.60000000006636 0.0 0.0
22.3000000000675 0.0 0.0
22.00000000006795 0.0 0.0
21.70000000006683 0.0 0.0
21.40000000006501 0.0 0.0
21.1000000000632 0.0 0.0
20.80000000006138 0.0 0.0
20.50000000005956 0.0 0.0
20.20000000005775 0.0 0.0
19.90000000005593 0.0 0.0
19.60000000005412 0.0 0.0
19.3000000000523 0.0 0.0
19.00000000005049 0.0 0.0
18.70000000004867 0.0 0.0
18.40000000004686 0.0 0.0
18.10000000004504 0.0 0.0
17.80000000004323 0.0 0.0
17.50000000004141 0.0 0.0
17.2000000000396 0.0 0.0
16.90000000003779 0.0 0.0
16.60000000003597 0.0 0.0
16.30000000003416 0.0 0.0
16.00000000003234 0.0 0.0
15.70000000003053 0.0 0.0
15.40000000002871 0.0 0.0
15.1000000000269 0.0 0.0
14.80000000002508 0.0 0.0
14.50000000002327 0.0 0.0
14.20000000002145 0.0 0.0
13.90000000001964 0.0 0.0
13.60000000001783 0.0 0.0
13.30000000001601 0.0 0.0
13.0000000000142 0.0 0.0
12.70000000001238 0.0 0.0
12.40000000001056 0.0 0.0
12.10000000000875 0.0 0.0
11.80000000000694 0.0 0.0
11.50000000000512 0.0 0.0
11.20000000000331 0.0 0.0
10.90000000000149 0.0 0.0
10.59999999999968 0.0 0.0
10.29999999999787 0.0 0.0
9.99999999999605 0.0 0.0
9.699999999994237 0.0 0.0
9.399999999992424 0.0 0.0
9.099999999990604 0.0 0.0
8.799999999988792 0.0 0.0
8.499999999986976 0.0 0.0
8.199999999985256 0.0 0.0
7.899999999985106 0.0 0.0
7.599999999986252 0.0 0.0
7.299999999987392 0.0 0.0
6.999999999988546 0.0 0.0
6.699999999989686 0.0 0.0
6.399999999990833 0.0 0.0
6.099999999991979 0.0 0.0
5.799999999993126 0.0 0.0
5.499999999994273 0.0 0.0
5.199999999995413 0.0 0.0
4.899999999996567 0.0 0.0
4.599999999997706 0.0 0.0
4.299999999998853 0.0 0.0
4.0 0.2499999999994109 0.0
4.0 0.4999999999986918 0.0
4.0 0.7499999999993401 0.0
3.714285714284526 1.0 0.0
3.428571428569844 1.0 0.0
3.142857142857542 1.0 0.0
2.85714285714524 1.0 0.0
2.571428571432937 1.0 0.0
2.285714285720635 1.0 0.0
2.000000000008246 1.0 0.0
1.714285714292858 1.0 0.0
1.428571428577383 1.0 0.0
1.142857142861906 1.0 0.0
0.8571428571464295 1.0 0.0
0.5714285714309533 1.0 0.0
0.2857142857154762 1.0 0.0
5.440895737063815 1.5321810752057226 0.0
38.359631109480205 1.5447862624578594 0.0
36.55156595862513 1.5678345293898692 0.0
34.78710000302187 1.5642234316343742 0.0
32.9971954225337 1.5616773154845147 0.0
31.206213093159832 1.5616241273381726 0.0
29.41743466562333 1.560813469344192 0.0
27.626772764562254 1.5595442904607533 0.0
25.8345099987122 1.5596010883176028 0.0
24.038234267385175 1.5598722611419031 0.0
22.28410800461182 1.5615988969890857 0.0
20.49887470353422 1.5590348043573192 0.0
18.706375623998746 1.5616894963191854 0.0
16.914750360834766 1.563910776410858 0.0
15.128618847375977 1.5556246456016476 0.0
13.33374344126039 1.5511890511266595 0.0
7.030759682398678 1.534442092687481 0.0
11.566049076409328 1.4969212260342677 0.0
8.761848711004971 1.5139156602083867 0.0
10.122611928795317 1.6236584616968261 0.0
4.526369532015368 1.9188661001514808 0.0
3.5185905812745153 2.0252610404151303 0.0
0.8929602934338949 2.0484837616277805 0.0
2.1303862954741786 2.0128365285831764 0.0
37.45664389250272 1.9215745158530688 0.0
35.76980667423149 1.9566969156967804 0.0
33.97560565425424 1.951129826056218 0.0
32.18468257484926 1.9502423738014634 0.0
30.393953542480887 1.9506962134922115 0.0
28.603869422410817 1.9490708688174188 0.0
26.81243432007293 1.9489436858605451 0.0
25.020320832831715 1.9489079511655873 0.0
23.222921081222125 1.9532226644536412 0.0
21.438577064798203 1.9510574224417399 0.0
19.648320628121976 1.9527003755547225 0.0
17.85646983812719 1.9551347438424853 0.0
16.066386904528457 1.9524591667910451 0.0
14.276194644033797 1.949504085905422 0.0
12.469240233774332 1.9331189870611798 0.0
7.903765740008337 1.9170293474259146 0.0
32.11693620250729 1.0153772846462719 0.0
33.9052719667752 1.018314117442152 0.0
30.327339895719167 1.0165516066818012 0.0
35.685997274784626 1.0240920134690144 0.0
37.47826336526687 0.9143900830224962 0.0
28.544382306259507 1.008832531079308 0.0
26.750770900913658 1.008697819364698 0.0
24.956031422002802 1.0087920104531238 0.0
23.15163741793711 1.0082816543559 0.0
21.376334792735403 0.9954454147104485 0.0
19.585082890394872 1.0071215101888775 0.0
17.79121251690518 1.0187009575384915 0.0
16.01281168302144 1.0009471538479193 0.0
14.223190832776599 0.9947506625384457 0.0
12.435116110262122 0.9533072381305729 0.0
7.904118015944833 0.9516540425309552 0.0
6.260075186818547 0.9882083828748837 0.0
6.226199612153765 2.037271304307933 0.0
4.831970914683074 0.828771924662698 0.0
[...]
POINT_DATA 1869
VECTORS vector double
0.0 0.0 0.0
0.0 0.0 0.0
0.0 0.0 0.0
0.0 0.0 0.0
0.0 0.0 0.0
0.0 0.0 0.0
0.734693877556 0.0 0.0
1.22448979592 0.0 0.0
1.4693877551 0.0 0.0
1.4693877551 0.0 0.0
1.22448979592 0.0 0.0
0.73469387755 0.0 0.0
0.0 0.0 0.0
0.0 0.0 0.0
0.0 0.0 0.0
0.0 0.0 0.0
0.0 0.0 0.0
0.0 0.0 0.0
0.0 0.0 0.0
0.0 0.0 0.0
0.0 0.0 0.0
0.0 0.0 0.0
0.0 0.0 0.0
0.0 0.0 0.0
0.0 0.0 0.0
0.0 0.0 0.0
0.0 0.0 0.0
0.0 0.0 0.0
0.0 0.0 0.0
0.0 0.0 0.0
0.0 0.0 0.0
0.0 0.0 0.0
0.0 0.0 0.0
0.0 0.0 0.0
0.0 0.0 0.0
0.0 0.0 0.0
0.0 0.0 0.0
0.0 0.0 0.0
0.0 0.0 0.0
0.0 0.0 0.0
0.0 0.0 0.0
0.0 0.0 0.0
0.0 0.0 0.0
0.0 0.0 0.0
0.0 0.0 0.0
0.0 0.0 0.0
0.0 0.0 0.0
0.0 0.0 0.0
0.0 0.0 0.0
0.0 0.0 0.0
0.0 0.0 0.0
0.0 0.0 0.0
0.0 0.0 0.0
0.0 0.0 0.0
0.0 0.0 0.0
0.0 0.0 0.0
0.0 0.0 0.0
0.0 0.0 0.0
0.0 0.0 0.0
0.0 0.0 0.0
0.0 0.0 0.0
0.0 0.0 0.0
0.0 0.0 0.0
0.0 0.0 0.0
0.0 0.0 0.0
0.0 0.0 0.0
0.0 0.0 0.0
0.0 0.0 0.0
0.0 0.0 0.0
0.0 0.0 0.0
0.0 0.0 0.0
0.0 0.0 0.0
0.0 0.0 0.0
0.0 0.0 0.0
0.0 0.0 0.0
0.0 0.0 0.0
0.0 0.0 0.0
0.0 0.0 0.0
0.0 0.0 0.0
0.0 0.0 0.0
0.0 0.0 0.0
0.0 0.0 0.0
0.0 0.0 0.0
0.0 0.0 0.0
0.0 0.0 0.0
0.0 0.0 0.0
0.0 0.0 0.0
0.0 0.0 0.0
0.0 0.0 0.0
0.0 0.0 0.0
0.0 0.0 0.0
0.0 0.0 0.0
0.0 0.0 0.0
0.0 0.0 0.0
0.0 0.0 0.0
0.0 0.0 0.0
0.0 0.0 0.0
0.0 0.0 0.0
0.0 0.0 0.0
0.0 0.0 0.0
0.0 0.0 0.0
0.0 0.0 0.0
0.0 0.0 0.0
0.0 0.0 0.0
0.0 0.0 0.0
0.0 0.0 0.0
0.0 0.0 0.0
0.0 0.0 0.0
0.0 0.0 0.0
0.0 0.0 0.0
0.0 0.0 0.0
0.0 0.0 0.0
0.0 0.0 0.0
0.0 0.0 0.0
0.0 0.0 0.0
0.0 0.0 0.0
0.0 0.0 0.0
0.0 0.0 0.0
0.0 0.0 0.0
0.0 0.0 0.0
0.0 0.0 0.0
0.0 0.0 0.0
0.0 0.0 0.0
0.0 0.0 0.0
0.0 0.0 0.0
0.0 0.0 0.0
0.0 0.0 0.0
0.0 0.0 0.0
0.0 0.0 0.0
0.0 0.0 0.0
0.0 0.0 0.0
0.0 0.0 0.0
0.0 0.0 0.0
0.0 0.0 0.0
0.0 0.0 0.0
0.0 0.0 0.0
0.0 0.0 0.0
0.0 0.0 0.0
0.0 0.0 0.0
0.0 0.0 0.0
0.0 0.0 0.0
0.0 0.0 0.0
0.0 0.0 0.0
0.0 0.0 0.0
0.0 0.0 0.0
0.410203599412 0.0238756012053 0.0
0.680027275053 0.00484381203177 0.0
0.835139722894 0.00548330049639 0.0
0.902505344628 -8.58582477616e-06 0.0
0.916010232919 -0.000300955406605 0.0
0.899916245753 0.00060476831666 0.0
0.835546674952 -0.00587752052339 0.0
0.68976871319 -0.00362726220535 0.0
0.414769570144 -0.0228247803366 0.0
0.0 0.0 0.0
0.0 0.0 0.0
0.0 0.0 0.0
0.0 0.0 0.0
0.0 0.0 0.0
0.0 0.0 0.0
0.0 0.0 0.0
0.0 0.0 0.0
0.0 0.0 0.0
0.0 0.0 0.0
0.0 0.0 0.0
0.0 0.0 0.0
0.0 0.0 0.0
0.0 0.0 0.0
0.0 0.0 0.0
0.0 0.0 0.0
0.0 0.0 0.0
0.0 0.0 0.0
0.0 0.0 0.0
0.0 0.0 0.0
0.0 0.0 0.0
0.0 0.0 0.0
0.0 0.0 0.0
0.0 0.0 0.0
0.0 0.0 0.0
0.0 0.0 0.0
0.0 0.0 0.0
0.0 0.0 0.0
0.0 0.0 0.0
0.0 0.0 0.0
0.0 0.0 0.0
0.0 0.0 0.0
0.0 0.0 0.0
0.0 0.0 0.0
0.0 0.0 0.0
0.0 0.0 0.0
0.0 0.0 0.0
0.0 0.0 0.0
0.0 0.0 0.0
0.0 0.0 0.0
0.0 0.0 0.0
0.0 0.0 0.0
0.0 0.0 0.0
0.0 0.0 0.0
0.0 0.0 0.0
0.0 0.0 0.0
0.0 0.0 0.0
0.0 0.0 0.0
0.0 0.0 0.0
0.0 0.0 0.0
0.0 0.0 0.0
0.0 0.0 0.0
0.0 0.0 0.0
0.0 0.0 0.0
0.0 0.0 0.0
0.0 0.0 0.0
0.0 0.0 0.0
0.0 0.0 0.0
0.0 0.0 0.0
0.0 0.0 0.0
0.0 0.0 0.0
0.0 0.0 0.0
0.0 0.0 0.0
0.0 0.0 0.0
0.0 0.0 0.0
0.0 0.0 0.0
0.0 0.0 0.0
0.0 0.0 0.0
0.0 0.0 0.0
0.0 0.0 0.0
0.0 0.0 0.0
0.0 0.0 0.0
0.0 0.0 0.0
0.0 0.0 0.0
0.0 0.0 0.0
0.0 0.0 0.0
0.0 0.0 0.0
0.0 0.0 0.0
0.0 0.0 0.0
0.0 0.0 0.0
0.0 0.0 0.0
0.0 0.0 0.0
0.0 0.0 0.0
0.0 0.0 0.0
0.0 0.0 0.0
0.0 0.0 0.0
0.0 0.0 0.0
0.0 0.0 0.0
0.0 0.0 0.0
0.0 0.0 0.0
0.0 0.0 0.0
0.0 0.0 0.0
0.0 0.0 0.0
0.0 0.0 0.0
0.0 0.0 0.0
0.0 0.0 0.0
0.0 0.0 0.0
0.0 0.0 0.0
0.0 0.0 0.0
0.0 0.0 0.0
0.0 0.0 0.0
0.0 0.0 0.0
0.0 0.0 0.0
0.0 0.0 0.0
0.0 0.0 0.0
0.0 0.0 0.0
0.0 0.0 0.0
0.0 0.0 0.0
0.0 0.0 0.0
0.0 0.0 0.0
0.0 0.0 0.0
0.0 0.0 0.0
0.0 0.0 0.0
0.0 0.0 0.0
0.0 0.0 0.0
0.0 0.0 0.0
0.0 0.0 0.0
0.0 0.0 0.0
0.0 0.0 0.0
0.0 0.0 0.0
0.0 0.0 0.0
0.0 0.0 0.0
0.0 0.0 0.0
0.0 0.0 0.0
0.0 0.0 0.0
0.0 0.0 0.0
0.0 0.0 0.0
0.0 0.0 0.0
0.0 0.0 0.0
0.0 0.0 0.0
0.0 0.0 0.0
0.0 0.0 0.0
0.0 0.0 0.0
0.0 0.0 0.0
0.0 0.0 0.0
0.991758755302 -0.219952842091 0.0
0.893174849684 -0.00260833876581 0.0
0.885993373498 0.00188012042976 0.0
0.891936126155 0.00116793789359 0.0
0.891620058534 -2.58338692499e-05 0.0
0.891506443937 0.00016577235115 0.0
0.889884155056 4.9154676286e-05 0.0
0.889753362496 -0.000296731822484 0.0
0.88973954019 -0.000437287502581 0.0
0.88990389619 -0.000755170031015 0.0
0.889932138626 0.00045361995614 0.0
0.888444854124 0.000206523758512 0.0
0.888555624079 -0.000692690901869 0.0
0.889674807826 -0.000863791471563 0.0
0.890244278152 -0.00040767811716 0.0
0.891269405415 -0.00284620621466 0.0
0.893649738151 -0.0215525509497 0.0
0.888107130594 -0.00216434271391 0.0
0.890088990748 0.0014849121263 0.0
0.883207518806 0.0016779879175 0.0
1.26788726496 -0.194604460261 0.0
1.43293013517 -0.084172058822 0.0
1.48451755525 0.0030146850402 0.0
1.45699335627 -0.0130602353333 0.0
0.867673941118 -0.00362195754108 0.0
0.86302990886 0.00612965434671 0.0
0.864021072325 0.00243759516711 0.0
0.863756612198 0.00201163304007 0.0
0.86292731032 0.00236464960748 0.0
0.862470780917 0.00201585168682 0.0
0.862419797059 0.00188335189963 0.0
0.862527005698 0.00170488147648 0.0
0.862423544666 0.00177228481704 0.0
0.86183388738 0.00230025175335 0.0
0.860884277965 0.00183006189631 0.0
0.861228771285 0.00140021580776 0.0
0.862656071415 0.00160457183234 0.0
0.86374589178 0.00113159588914 0.0
0.866630408884 -0.00314339113662 0.0
0.873140473822 0.00118614210218 0.0
0.860385921 -7.51822332809e-05 0.0
0.860509085206 0.000456562390905 0.0
0.860498969435 0.00167658678316 0.0
0.859690793454 0.000431249598513 0.0
0.833340967525 -0.00156946115345 0.0
0.858939250449 0.000271441203603 0.0
0.858968333811 0.000112810267291 0.0
0.858866991407 -9.50869794793e-05 0.0
0.858558162167 0.000461892706135 0.0
0.853020462858 0.00236502202338 0.0
0.854964428323 0.000804833203337 0.0
0.859281209184 -0.000786615188517 0.0
0.857712840904 0.000487177241312 0.0
0.8555690162 -0.000464265615127 0.0
0.843588624534 -0.00222467063304 0.0
0.841218609088 0.00221633469238 0.0
0.806147055941 -0.0805843142145 0.0
0.904659526984 -0.0483701986118 0.0
0.457003004442 -0.249087273349 0.0
0.837600986724 -0.000275162486972 0.0
0.839695996867 0.0019729056187 0.0
0.831971547111 -0.00460218464486 0.0
0.834192812233 0.00288095316752 0.0
0.83863332728 -0.00643187947176 0.0
0.813323538444 0.00641852941425 0.0
0.950830061562 -0.083552914051 0.0
0.778883514133 -0.00296468593884 0.0
0.774403091922 -0.00912000119137 0.0
0.773446294233 -0.00746578422766 0.0
0.788807850405 -0.00677471755221 0.0
0.785127534033 -0.00780553896419 0.0
0.784284156554 -0.00617312152948 0.0
0.782032223297 -0.00282895104717 0.0
0.784326712786 -0.00455019317554 0.0
0.784646450696 -0.00411967025181 0.0
0.784747904827 -0.00401335189083 0.0
0.784967053952 -0.00372813107861 0.0
0.788938484131 0.000536915747319 0.0
0.788430369445 0.000170203580424 0.0
0.811196495532 -0.00136906606442 0.0
0.788795158394 0.00197142707208 0.0
0.778269762237 -0.000152249510229 0.0
0.774987989701 -0.00134529946496 0.0
0.779911236464 -0.00749916706395 0.0
0.810712308985 -0.000858922660465 0.0
0.774222090252 0.00490327075942 0.0
0.773764500396 0.00387341109082 0.0
0.773411528695 0.00386088967963 0.0
0.772521711472 0.0039227284638 0.0
0.806908351458 0.00157657488499 0.0
0.772442738613 0.00376881712352 0.0
0.772451828387 0.00368267427559 0.0
0.77283379903 0.00352072443674 0.0
0.768327807626 0.00402864877991 0.0
0.767879421915 0.00407301296955 0.0
0.767410602967 0.0037574805783 0.0
0.76784975792 0.00365785066345 0.0
0.769459176795 0.00381124789916 0.0
0.772413940356 0.00232445209306 0.0
0.804408183282 -0.00620609825366 0.0
0.748396307194 -0.00223951627856 0.0
0.760825039084 -0.00137882292315 0.0
1.39139881647 -0.0354709640961 0.0
0.556871972143 -0.146295307743 0.0
1.22537318071 -0.0253182767425 0.0
0.779069561847 -0.000779393627085 0.0
1.18531616381 0.0137460036202 0.0
1.35000107583 -0.166126499025 0.0
0.732677252321 0.00186655632758 0.0
1.31251891786 -0.0204328016798 0.0
1.02642342683 -0.356241109383 0.0
1.0774979468 -0.0562978201705 0.0
0.900907419964 -0.00107023760456 0.0
0.715898797731 -0.00916868454904 0.0
0.709644666692 -0.00553507899214 0.0
0.708114921442 -0.00558013750105 0.0
0.707100503718 -0.00552869060017 0.0
0.707384038362 -0.00527627336459 0.0
0.70818627311 -0.00521045526036 0.0
0.709196839635 -0.00535678190922 0.0
0.709415392472 -0.00538566877598 0.0
0.709314778911 -0.00528953998573 0.0
0.70938477976 -0.00520512051244 0.0
0.709809639424 -0.00511806425436 0.0
0.710375725456 -0.00521777877276 0.0
0.710801507029 -0.0048165680812 0.0
0.69802456035 0.0101299477003 0.0
0.714998346731 0.0017556630635 0.0
0.885649673813 -0.000613870482343 0.0
0.88635823991 0.00208858593377 0.0
0.718194627582 -0.0126325427394 0.0
0.720965599418 -0.0102085218634 0.0
0.71886997116 -0.0127943285112 0.0
0.7285679116 -0.0150558717674 0.0
1.15284885429 0.0179335700165 0.0
0.726295912407 -0.014229601956 0.0
0.732177593304 0.00191769042787 0.0
0.738268793063 0.00106893044952 0.0
0.738564687797 0.00138665175146 0.0
0.738574497504 0.00148064105467 0.0
0.736463612698 -0.000606971898011 0.0
0.739713209767 0.00206681612877 0.0
0.737180928057 -0.00136298805072 0.0
0.737298888761 -0.00127614775225 0.0
1.14053462126 -0.00606781061197 0.0
0.774446986942 -0.0292357549562 0.0
0.892553432361 -0.000430455699053 0.0
0.892647224128 0.000306005408299 0.0
0.892105689999 0.000282804950378 0.0
0.891180456393 -0.000471226353362 0.0
0.890066024336 0.00210819473637 0.0
0.891140264775 -0.000685017126427 0.0
0.891124349524 -0.000871341674751 0.0
0.891505045291 -0.000920991381272 0.0
0.890433511604 0.00021586959793 0.0
0.889303860329 -0.000554103870722 0.0
0.890162273665 -0.00138073124518 0.0
0.891576773824 -0.00122251691971 0.0
0.891533187566 -0.00157495360364 0.0
0.891538982089 -0.00422800144248 0.0
0.890843892698 -0.00259308192752 0.0
0.889960024535 -0.00427397258811 0.0
0.887734287444 -0.00105442826089 0.0
0.914759650421 -0.124926503267 0.0
0.643888591996 -0.00554722829537 0.0
0.892582210546 0.000766287865152 0.0
0.892540329654 0.000479338480191 0.0
0.891315240488 0.00117195774986 0.0
0.892170126189 0.00228563093937 0.0
0.890902509674 0.00057877052683 0.0
0.890887480267 0.000435469144864 0.0
0.890901200576 0.000167179870055 0.0
0.89137321749 0.00057736224958 0.0
0.889846419551 0.00107923003463 0.0
0.88945923778 0.000170830583523 0.0
0.654825811321 -0.0130629870853 0.0
0.890614684144 -0.00027738839187 0.0
0.891619385901 0.000325282228438 0.0
0.892009967618 -0.00114684860437 0.0
0.890119483067 -0.00240409932178 0.0
0.892478884713 0.00101052265525 0.0
0.843834557799 -0.0663950340168 0.0
1.10180184614 -0.299078649239 0.0
0.628576128035 0.000860428192558 0.0
0.646058887386 0.00485143300716 0.0
1.20487394655 -0.0396106566541 0.0
0.041339432529 -0.0542730249217 0.0
0.618300745779 -0.00217390036985 0.0
0.637012370641 -0.0048561270801 0.0
0.64359144403 0.00324890872395 0.0
0.632104071932 0.00575046778762 0.0
1.06426902765 -0.0128432828997 0.0
0.609038963934 0.000187608656748 0.0
0.63071452812 0.000177070815814 0.0
0.611019273112 0.000338565210489 0.0
0.67372712038 -0.00733369187038 0.0
0.676799323758 0.0065819828403 0.0
0.650058501475 -0.000878094206291 0.0
0.677304248335 0.00465861951313 0.0
0.677038049954 0.00452038625282 0.0
0.67625745404 0.00463713974084 0.0
0.67617634244 0.00451186877547 0.0
0.676135550436 0.00446089880261 0.0
0.676435082978 0.00436256857469 0.0
0.672800561418 0.00457381908933 0.0
0.67287888808 0.00468487836062 0.0
0.672049137786 0.0045108661489 0.0
0.671946855847 0.00436133530615 0.0
0.673516733879 0.00443671761015 0.0
0.675205560359 0.00422380398842 0.0
0.660747847293 0.00589499946806 0.0
0.685755147864 -0.00404652069955 0.0
0.611191264326 0.000440175218685 0.0
0.656105949832 0.00354450391996 0.0
0.606156035382 0.00742729419962 0.0
0.611200108333 0.000555906697096 0.0
0.601550897423 0.00765188651839 0.0
1.19248169331 -0.0141373390189 0.0
0.617514867007 0.00511671549537 0.0
0.616755929698 -0.00765882310334 0.0
0.601656224818 0.00576208571324 0.0
0.615467043904 0.00376891736031 0.0
0.61676113971 0.0052631692715 0.0
0.620912866896 0.00495280561765 0.0
0.568296390288 -0.00127119259477 0.0
1.07768658323 -0.00852460047383 0.0
1.09177357342 0.0181728747462 0.0
0.891088938042 -0.0576129442488 0.0
0.868977883539 0.00051039174478 0.0
0.594592098691 -9.07112707812e-05 0.0
0.596953195267 0.00258361210763 0.0
1.04418666426 -0.0271733351727 0.0
0.643930270052 0.000866284732039 0.0
0.889443973952 -0.0276849911764 0.0
0.666083735676 -0.0018259835604 0.0
0.895023058225 -0.00310825953021 0.0
0.558248309394 -0.0625462094669 0.0
0.629862869134 0.0016677830006 0.0
0.643923959818 -0.000396773505102 0.0
0.652579236932 0.00234003512525 0.0
0.872410480115 6.42365453959e-05 0.0
0.865199368542 -0.00213978803789 0.0
0.868341548041 0.000463615919402 0.0
0.974900406514 -0.102398751967 0.0
0.862097233581 0.00495956762202 0.0
0.866768753106 -0.000384648751252 0.0
0.866366882768 -0.00123317199413 0.0
0.865910137683 -0.00102177607513 0.0
0.86498449519 -0.00120691765553 0.0
0.864887196524 -0.00140979411177 0.0
0.864917937436 -0.00154530994734 0.0
0.865194291261 -0.00169082180796 0.0
0.864515772089 -0.00102381517442 0.0
0.863459259728 -0.00129676404431 0.0
0.863546625352 -0.00187035319952 0.0
0.864646524408 -0.00188431028113 0.0
0.865694172054 -0.0018013906678 0.0
0.868386066059 -0.00476832968282 0.0
0.866316636442 -0.00334678190611 0.0
0.867476131777 -0.000800535578417 0.0
0.868031757218 -0.00157133533672 0.0
0.867042491271 -0.00185392950194 0.0
0.866668281609 -0.000719120029536 0.0
0.869206771651 -0.000264532159848 0.0
0.873185425294 -0.00141819265698 0.0
0.875679271725 -0.000155989204777 0.0
0.873318534842 -0.00103193667881 0.0
0.875467829649 -0.0011380389789 0.0
0.873355708976 -0.000911953524893 0.0
0.875592261393 -0.00116231088594 0.0
0.873731639265 -0.000299981670301 0.0
0.253150897557 -0.110266730041 0.0
0.86446282517 -0.000514073016836 0.0
0.87384537988 -0.00539723500227 0.0
0.877124076743 0.00636904931485 0.0
0.848592311648 -0.0283718828689 0.0
0.57786893324 -0.00507765033515 0.0
0.571314536214 0.00599730772577 0.0
0.360730075621 -0.238024298025 0.0
0.861740516316 -0.00486091531847 0.0
0.859673183885 0.00353527138714 0.0
0.86198985119 -0.00284544415233 0.0
0.66629284601 -0.00436539112358 0.0
0.728171511094 -0.256746752031 0.0
0.855928604275 0.00114677705786 0.0
0.605707996766 -0.00547975252572 0.0
0.800621759452 -0.186202280488 0.0
1.48568323339 0.00747241377111 0.0
1.04458736235 0.00264179267711 0.0
0.860870522031 0.000917263726745 0.0
0.874439517152 -0.00100936461245 0.0
0.871739926806 9.30967184032e-05 0.0
0.88002718246 -0.0049682056311 0.0
0.87108197834 -0.0057422148148 0.0
1.44036209026 -0.0172482428716 0.0
0.999290737332 -0.00352010745378 0.0
0.8705627613 -0.000889190240263 0.0
0.868934887701 4.02651952612e-05 0.0
0.868700429591 -0.000139078745339 0.0
0.869122607703 0.00199614335207 0.0
0.867553236846 0.000182150041795 0.0
0.867327046719 -0.00016052568117 0.0
0.872240811677 0.00131563585812 0.0
0.867307003684 -0.000276801297991 0.0
0.867494234853 -0.000494576631001 0.0
0.864597930183 6.07616349237e-06 0.0
0.863832707954 0.000292115758776 0.0
0.863313666601 -0.00025526290958 0.0
0.863929411997 -0.000531817366604 0.0
0.865282954891 -0.00022674444417 0.0
0.86688062167 -0.00140367687002 0.0
0.861236282953 -0.00488591422256 0.0
0.862556354494 0.00363470180263 0.0
0.880926885672 -0.00346611909874 0.0
0.872244587375 -0.00869338762083 0.0
0.878575392352 -0.00494024068067 0.0
0.879725387473 -0.00248821891691 0.0
0.881123225862 -0.00293473549416 0.0
0.879571389926 -0.00264664112178 0.0
0.878846570608 -0.0013830857078 0.0
0.880182714557 -0.000435407366957 0.0
0.880522804804 0.00147067643045 0.0
0.883614040515 0.00065934980633 0.0
0.883480157464 -0.000497858212468 0.0
0.881358349263 -0.00201761283753 0.0
0.883652880835 0.000113920856716 0.0
0.881319464373 -0.00159897796872 0.0
0.881438313304 -0.00111321248508 0.0
0.881369685021 -0.00144773151339 0.0
0.494527407952 0.0250944727398 0.0
0.554724716827 -0.00273803570423 0.0
0.479304827892 0.00807435773887 0.0
0.478868681188 0.00781746250111 0.0
0.478573794809 0.00781471919266 0.0
0.47811930097 0.0078253500176 0.0
0.478077291849 0.00778538314316 0.0
0.478127911455 0.00774811503641 0.0
0.478433722286 0.00768041510761 0.0
0.475545654868 0.00786484956127 0.0
0.475182944715 0.00786130077316 0.0
0.47477600299 0.0077516005933 0.0
0.475157433161 0.00774258165856 0.0
0.476388715104 0.00781762441197 0.0
0.480212349993 0.00683880431279 0.0
1.36722163496 -0.139403882343 0.0
0.49403797929 0.0174720054255 0.0
0.937134443276 -0.338822743965 0.0
0.489500049196 0.015883588958 0.0
0.490103880074 0.0157535189902 0.0
0.497467481769 0.0182451311436 0.0
0.49783767391 0.0177250093821 0.0
0.498100190111 0.0176149502782 0.0
0.497845690836 0.0173354911212 0.0
0.496341622293 0.0185879204697 0.0
0.364808083161 -0.0126581979681 0.0
0.525316337409 -0.0119604370237 0.0
0.526576975789 -0.0131531843713 0.0
0.531067543747 -0.00444600924692 0.0
0.493406424763 -0.00865924917463 0.0
0.508350390034 -0.013551046759 0.0
0.743751348406 -0.0267432768169 0.0
0.573843596844 -0.0329928331161 0.0
0.540087510684 -0.00643021218703 0.0
0.470826113968 -0.00960881134718 0.0
0.453699202182 0.00519978782463 0.0
1.13828206325 -0.15075066233 0.0
0.560588121686 -0.00907586210855 0.0
1.0665041525 -0.074299418256 0.0
0.556809341176 -0.00840008268383 0.0
0.559609785002 -0.00859482150794 0.0
0.587304544275 -0.0094451093493 0.0
0.597413273242 -0.0226744678764 0.0
0.589892217888 -0.0236579175443 0.0
0.391347306048 -0.0279095189626 0.0
0.593643279956 0.00523226325159 0.0
0.59736601231 0.00727518490656 0.0
0.594487875334 0.004832521577 0.0
0.593128778446 0.00705772580101 0.0
0.577315111892 -0.00499793996627 0.0
0.593304702559 0.00706877926553 0.0
0.593215087168 0.00700176378965 0.0
0.589691326642 0.00729200574447 0.0
0.594609129507 0.00252706137553 0.0
0.551094586128 0.00611508191579 0.0
1.44168419141 -0.040098975995 0.0
1.47564976935 0.000357578627741 0.0
0.607060539254 0.0116777334115 0.0
0.608630129557 0.00696757379557 0.0
0.614876538213 0.00176019182946 0.0
0.608323608455 0.00680796297081 0.0
0.607340627685 0.00653215167357 0.0
0.607699867833 0.00688732819246 0.0
0.605992558334 0.00658387865266 0.0
0.607520546714 0.00679489430952 0.0
0.604726651619 0.00653209607402 0.0
0.607464688264 0.00675282419596 0.0
0.604963167455 0.00669631212563 0.0
0.607684998266 0.00667997230567 0.0
0.60582737393 0.00684403945619 0.0
0.605988057762 0.00682423108696 0.0
1.06233320188 -0.190663749409 0.0
0.952972120726 -0.0131455479687 0.0
0.392700155104 -0.00454480010852 0.0
0.39333080631 0.00394983324645 0.0
0.956216456648 -0.258386309171 0.0
0.602482358572 0.00180673832756 0.0
1.46228301525 -0.00483139929156 0.0
0.827103977725 0.0059227031154 0.0
0.829586204658 -0.00793225060443 0.0
0.835053494209 -0.00487335828378 0.0
0.839260187731 -0.00486448194175 0.0
0.841111310217 -0.00431123793486 0.0
0.83876993096 -0.0033956882916 0.0
0.837192817487 -0.00206690948663 0.0
0.330163328696 -0.0482270939653 0.0
0.839576990912 -0.0044337227085 0.0
0.839827490243 -0.00413125407217 0.0
0.839940674509 -0.0039773841733 0.0
0.839976240202 -0.0037787521987 0.0
0.841297803181 -0.00149124581232 0.0
0.840564551855 -0.00280724534662 0.0
0.84194018283 -0.00324973632576 0.0
0.84077190603 -0.00198681169773 0.0
0.886475655422 0.00226964783055 0.0
0.884884294265 -0.00231099474708 0.0
0.876568128381 0.00313477132478 0.0
0.881937144028 0.00121243045034 0.0
0.881508724432 4.83858165275e-06 0.0
0.827454909622 -0.00789231753021 0.0
0.585828982071 -0.0242181705699 0.0
0.881231526833 0.000101436738939 0.0
0.879977219629 0.000100996827825 0.0
0.879835029749 -0.000191626848956 0.0
0.879835790196 -0.000320612577514 0.0
0.880083638955 -0.00056810689767 0.0
0.878665212988 0.000354617380301 0.0
0.379155016777 0.0211373378577 0.0
0.377542053489 0.0212869071841 0.0
0.376426940885 0.0211684228928 0.0
0.376398730969 0.0212320058745 0.0
0.376918764754 0.0213281814463 0.0
0.376936982824 0.0212886982682 0.0
0.380441175051 0.0215923894309 0.0
0.380100983591 0.0216127861925 0.0
0.380107284225 0.0216306906687 0.0
0.380133969184 0.021647823164 0.0
0.380568802513 0.0216578001661 0.0