# vtk DataFile Version 2.0
2D Simulation Python
ASCII
DATASET UNSTRUCTURED_GRID
FIELD FieldData 1
NODES 1 2 int
1869 3447

POINTS 1869 double
0.0 1.0 0.0
0.0 3.0 0.0
40.0 3.0 0.0
40.0 0.0 0.0
4.0 0.0 0.0
4.0 1.0 0.0
0.0 1.285714285716665 0.0
0.0 1.571428571430556 0.0
0.0 1.857142857144446 0.0
0.0 2.142857142858336 0.0
0.0 2.428571428572225 0.0
0.0 2.714285714286111 0.0
0.2985074626863422 3.0 0.0
0.5970149253727002 3.0 0.0
0.8955223880590588 3.0 0.0
1.194029850745382 3.0 0.0
1.492537313431632 3.0 0.0
1.791044776117834 3.0 0.0
2.089552238804087 3.0 0.0
2.388059701490418 3.0 0.0
2.686567164176777 3.0 0.0
2.985074626863136 3.0 0.0
3.283582089549494 3.0 0.0
3.582089552235852 3.0 0.0
3.880597014922211 3.0 0.0
4.179104477608569 3.0 0.0
4.477611940294928 3.0 0.0
4.776119402981237 3.0 0.0
5.074626865667346 3.0 0.0
5.373134328353175 3.0 0.0
5.671641791038871 3.0 0.0
5.970149253724567 3.0 0.0
6.268656716410264 3.0 0.0
6.56716417909596 3.0 0.0
6.865671641781655 3.0 0.0
7.164179104467352 3.0 0.0
7.462686567153049 3.0 0.0
7.761194029838745 3.0 0.0
8.05970149252444 3.0 0.0
8.358208955210136 3.0 0.0
8.656716417895833 3.0 0.0
8.95522388058153 3.0 0.0
9.253731343267225 3.0 0.0
9.552238805952921 3.0 0.0
9.850746268638618 3.0 0.0
10.14925373132431 3.0 0.0
10.44776119401001 3.0 0.0
10.7462686566957 3.0 0.0
11.0447761193814 3.0 0.0
11.34328358206709 3.0 0.0
11.64179104475279 3.0 0.0
11.94029850743848 3.0 0.0
12.23880597012418 3.0 0.0
12.53731343280987 3.0 0.0
12.83582089549557 3.0 0.0
13.13432835818127 3.0 0.0
13.43283582086696 3.0 0.0
13.73134328355265 3.0 0.0
14.02985074623835 3.0 0.0
14.32835820892405 3.0 0.0
14.62686567160974 3.0 0.0
14.92537313429544 3.0 0.0
15.22388059698113 3.0 0.0
15.52238805966683 3.0 0.0
15.82089552235252 3.0 0.0
16.11940298503862 3.0 0.0
16.41791044772535 3.0 0.0
16.71641791041237 3.0 0.0
17.01492537309939 3.0 0.0
17.31343283578641 3.0 0.0
17.61194029847344 3.0 0.0
17.91044776116046 3.0 0.0
18.20895522384748 3.0 0.0
18.5074626865345 3.0 0.0
18.80597014922152 3.0 0.0
19.10447761190854 3.0 0.0
19.40298507459556 3.0 0.0
19.70149253728258 3.0 0.0
19.9999999999696 3.0 0.0
20.29850746265662 3.0 0.0
20.59701492534364 3.0 0.0
20.89552238803066 3.0 0.0
21.19402985071768 3.0 0.0
21.49253731340471 3.0 0.0
21.79104477609173 3.0 0.0
22.08955223877875 3.0 0.0
22.38805970146577 3.0 0.0
22.68656716415279 3.0 0.0
22.98507462683981 3.0 0.0
23.28358208952683 3.0 0.0
23.58208955221385 3.0 0.0
23.88059701490088 3.0 0.0
24.1791044775879 3.0 0.0
24.47761194027491 3.0 0.0
24.77611940296193 3.0 0.0
25.07462686564896 3.0 0.0
25.37313432833598 3.0 0.0
25.671641791023 3.0 0.0
25.97014925371002 3.0 0.0
26.26865671639704 3.0 0.0
26.56716417908406 3.0 0.0
26.86567164177108 3.0 0.0
27.1641791044581 3.0 0.0
27.46268656714512 3.0 0.0
27.76119402983214 3.0 0.0
28.05970149251916 3.0 0.0
28.35820895520619 3.0 0.0
28.65671641789321 3.0 0.0
28.95522388058023 3.0 0.0
29.25373134326725 3.0 0.0
29.55223880595426 3.0 0.0
29.85074626864129 3.0 0.0
30.14925373132831 3.0 0.0
30.44776119401533 3.0 0.0
30.74626865670236 3.0 0.0
31.04477611938937 3.0 0.0
31.34328358207639 3.0 0.0
31.64179104476341 3.0 0.0
31.94029850745043 3.0 0.0
32.23880597013746 3.0 0.0
32.53731343282448 3.0 0.0
32.8358208955115 3.0 0.0
33.13432835819852 3.0 0.0
33.43283582088554 3.0 0.0
33.73134328357256 3.0 0.0
34.02985074625958 3.0 0.0
34.3283582089466 3.0 0.0
34.62686567163362 3.0 0.0
34.92537313432064 3.0 0.0
35.22388059700766 3.0 0.0
35.52238805969468 3.0 0.0
35.8208955223817 3.0 0.0
36.11940298506872 3.0 0.0
36.41791044775574 3.0 0.0
36.71641791044276 3.0 0.0
37.01492537312978 3.0 0.0
37.31343283581681 3.0 0.0
37.61194029850382 3.0 0.0
37.91044776119085 3.0 0.0
38.20895522387787 3.0 0.0
38.5074626865649 3.0 0.0
38.80597014925192 3.0 0.0
39.10447761193894 3.0 0.0
39.40298507462596 3.0 0.0
39.70149253731298 3.0 0.0
40.0 2.700000000001935 0.0
40.0 2.400000000003002 0.0
40.0 2.100000000002161 0.0
40.0 1.800000000002828 0.0
40.0 1.500000000004164 0.0
40.0 1.200000000003365 0.0
40.0 0.9000000000025241 0.0
40.0 0.6000000000016827 0.0
40.0 0.3000000000008414 0.0
39.70000000000115 0.0 0.0
39.40000000000229 0.0 0.0
39.10000000000343 0.0 0.0
38.80000000000458 0.0 0.0
38.50000000000572 0.0 0.0
38.20000000000687 0.0 0.0
37.90000000000801 0.0 0.0
37.60000000000915 0.0 0.0
37.3000000000103 0.0 0.0
37.00000000001144 0.0 0.0
36.70000000001259 0.0 0.0
36.40000000001373 0.0 0.0
36.10000000001487 0.0 0.0
35.80000000001602 0.0 0.0
35.50000000001717 0.0 0.0
35.20000000001831 0.0 0.0
34.90000000001945 0.0 0.0
34.6000000000206 0.0 0.0
34.30000000002174 0.0 0.0
34.00000000002289 0.0 0.0
33.70000000002403 0.0 0.0
33.40000000002517 0.0 0.0
33.10000000002632 0.0 0.0
32.80000000002747 0.0 0.0
32.50000000002861 0.0 0.0
32.20000000002975 0.0 0.0
31.9000000000309 0.0 0.0
31.60000000003204 0.0 0.0
31.30000000003319 0.0 0.0
31.00000000003433 0.0 0.0
30.70000000003548 0.0 0.0
30.40000000003662 0.0 0.0
30.10000000003777 0.0 0.0
29.80000000003891 0.0 0.0
29.50000000004005 0.0 0.0
29.2000000000412 0.0 0.0
28.90000000004234 0.0 0.0
28.60000000004348 0.0 0.0
28.30000000004463 0.0 0.0
28.00000000004577 0.0 0.0
27.70000000004692 0.0 0.0
27.40000000004806 0.0 0.0
27.1000000000492 0.0 0.0
26.80000000005035 0.0 0.0
26.50000000005149 0.0 0.0
26.20000000005263 0.0 0.0
25.90000000005378 0.0 0.0
25.60000000005492 0.0 0.0
25.30000000005606 0.0 0.0
25.00000000005721 0.0 0.0
24.70000000005835 0.0 0.0
24.40000000005949 0.0 0.0
24.10000000006064 0.0 0.0
23.80000000006178 0.0 0.0
23.50000000006293 0.0 0.0
23.20000000006407 0.0 0.0
22.90000000006521 0.0 0.0
22.60000000006636 0.0 0.0
22.3000000000675 0.0 0.0
22.00000000006795 0.0 0.0
21.70000000006683 0.0 0.0
21.40000000006501 0.0 0.0
21.1000000000632 0.0 0.0
20.80000000006138 0.0 0.0
20.50000000005956 0.0 0.0
20.20000000005775 0.0 0.0
19.90000000005593 0.0 0.0
19.60000000005412 0.0 0.0
19.3000000000523 0.0 0.0
19.00000000005049 0.0 0.0
18.70000000004867 0.0 0.0
18.40000000004686 0.0 0.0
18.10000000004504 0.0 0.0
17.80000000004323 0.0 0.0
17.50000000004141 0.0 0.0
17.2000000000396 0.0 0.0
16.90000000003779 0.0 0.0
16.60000000003597 0.0 0.0
16.30000000003416 0.0 0.0
16.00000000003234 0.0 0.0
15.70000000003053 0.0 0.0
15.40000000002871 0.0 0.0
15.1000000000269 0.0 0.0
14.80000000002508 0.0 0.0
14.50000000002327 0.0 0.0
14.20000000002145 0.0 0.0
13.90000000001964 0.0 0.0
13.60000000001783 0.0 0.0
13.30000000001601 0.0 0.0
13.0000000000142 0.0 0.0
12.70000000001238 0.0 0.0
12.40000000001056 0.0 0.0
12.10000000000875 0.0 0.0
11.80000000000694 0.0 0.0
11.50000000000512 0.0 0.0
11.20000000000331 0.0 0.0
10.90000000000149 0.0 0.0
10.59999999999968 0.0 0.0
10.29999999999787 0.0 0.0
9.99999999999605 0.0 0.0
9.699999999994237 0.0 0.0
9.399999999992424 0.0 0.0
9.099999999990604 0.0 0.0
8.799999999988792 0.0 0.0
8.499999999986976 0.0 0.0
8.199999999985256 0.0 0.0
7.899999999985106 0.0 0.0
7.599999999986252 0.0 0.0
7.299999999987392 0.0 0.0
6.999999999988546 0.0 0.0
6.699999999989686 0.0 0.0
6.399999999990833 0.0 0.0
6.099999999991979 0.0 0.0
5.799999999993126 0.0 0.0
5.499999999994273 0.0 0.0
5.199999999995413 0.0 0.0
4.899999999996567 0.0 0.0
4.599999999997706 0.0 0.0
4.299999999998853 0.0 0.0
4.0 0.2499999999994109 0.0
4.0 0.4999999999986918 0.0
4.0 0.7499999999993401 0.0
3.714285714284526 1.0 0.0
3.428571428569844 1.0 0.0
3.142857142857542 1.0 0.0
2.85714285714524 1.0 0.0
2.571428571432937 1.0 0.0
2.285714285720635 1.0 0.0
2.000000000008246 1.0 0.0
1.714285714292858 1.0 0.0
1.428571428577383 1.0 0.0
1.142857142861906 1.0 0.0
0.8571428571464295 1.0 0.0
0.5714285714309533 1.0 0.0
0.2857142857154762 1.0 0.0
5.440895737063815 1.5321810752057226 0.0
38.359631109480205 1.5447862624578594 0.0
36.55156595862513 1.5678345293898692 0.0
34.78710000302187 1.5642234316343742 0.0
32.9971954225337 1.5616773154845147 0.0
31.206213093159832 1.5616241273381726 0.0
29.41743466562333 1.560813469344192 0.0
27.626772764562254 1.5595442904607533 0.0
25.8345099987122 1.5596010883176028 0.0
24.038234267385175 1.5598722611419031 0.0
22.28410800461182 1.5615988969890857 0.0
20.49887470353422 1.5590348043573192 0.0
18.706375623998746 1.5616894963191854 0.0
16.914750360834766 1.563910776410858 0.0
15.128618847375977 1.5556246456016476 0.0
13.33374344126039 1.5511890511266595 0.0
7.030759682398678 1.534442092687481 0.0
11.566049076409328 1.4969212260342677 0.0
8.761848711004971 1.5139156602083867 0.0
10.122611928795317 1.6236584616968261 0.0
4.526369532015368 1.9188661001514808 0.0
3.5185905812745153 2.0252610404151303 0.0
0.8929602934338949 2.0484837616277805 0.0
2.1303862954741786 2.0128365285831764 0.0
37.45664389250272 1.9215745158530688 0.0
35.76980667423149 1.9566969156967804 0.0
33.97560565425424 1.951129826056218 0.0
32.18468257484926 1.9502423738014634 0.0
30.393953542480887 1.9506962134922115 0.0
28.603869422410817 1.9490708688174188 0.0
26.81243432007293 1.9489436858605451 0.0
25.020320832831715 1.9489079511655873 0.0
23.222921081222125 1.9532226644536412 0.0
21.438577064798203 1.9510574224417399 0.0
19.648320628121976 1.9527003755547225 0.0
17.85646983812719 1.9551347438424853 0.0
16.066386904528457 1.9524591667910451 0.0
14.276194644033797 1.949504085905422 0.0
12.469240233774332 1.9331189870611798 0.0
7.903765740008337 1.9170293474259146 0.0
32.11693620250729 1.0153772846462719 0.0
33.9052719667752 1.018314117442152 0.0
30.327339895719167 1.0165516066818012 0.0
35.685997274784626 1.0240920134690144 0.0
37.47826336526687 0.9143900830224962 0.0
28.544382306259507 1.008832531079308 0.0
26.750770900913658 1.008697819364698 0.0
24.956031422002802 1.0087920104531238 0.0
23.15163741793711 1.0082816543559 0.0
21.376334792735403 0.9954454147104485 0.0
19.585082890394872 1.0071215101888775 0.0
17.79121251690518 1.0187009575384915 0.0
16.01281168302144 1.0009471538479193 0.0
14.223190832776599 0.9947506625384457 0.0
12.435116110262122 0.9533072381305729 0.0
7.904118015944833 0.9516540425309552 0.0
6.260075186818547 0.9882083828748837 0.0
6.226199612153765 2.037271304307933 0.0
4.831970914683074 0.828771924662698 0.0
[...]
POINT_DATA 1869
VECTORS vector double
0.0 0.0 0.0
0.0 0.0 0.0
0.0 0.0 0.0
0.0 0.0 0.0
0.0 0.0 0.0
0.0 0.0 0.0
0.734693877556 0.0 0.0
1.22448979592 0.0 0.0
1.4693877551 0.0 0.0
1.4693877551 0.0 0.0
1.22448979592 0.0 0.0
0.73469387755 0.0 0.0
0.0 0.0 0.0
0.0 0.0 0.0
0.0 0.0 0.0
0.0 0.0 0.0
0.0 0.0 0.0
0.0 0.0 0.0
0.0 0.0 0.0
0.0 0.0 0.0
0.0 0.0 0.0
0.0 0.0 0.0
0.0 0.0 0.0
0.0 0.0 0.0
0.0 0.0 0.0
0.0 0.0 0.0
0.0 0.0 0.0
0.0 0.0 0.0
0.0 0.0 0.0
0.0 0.0 0.0
0.0 0.0 0.0
0.0 0.0 0.0
0.0 0.0 0.0
0.0 0.0 0.0
0.0 0.0 0.0
0.0 0.0 0.0
0.0 0.0 0.0
0.0 0.0 0.0
0.0 0.0 0.0
0.0 0.0 0.0
0.0 0.0 0.0
0.0 0.0 0.0
0.0 0.0 0.0
0.0 0.0 0.0
0.0 0.0 0.0
0.0 0.0 0.0
0.0 0.0 0.0
0.0 0.0 0.0
0.0 0.0 0.0
0.0 0.0 0.0
0.0 0.0 0.0
0.0 0.0 0.0
0.0 0.0 0.0
0.0 0.0 0.0
0.0 0.0 0.0
0.0 0.0 0.0
0.0 0.0 0.0
0.0 0.0 0.0
0.0 0.0 0.0
0.0 0.0 0.0
0.0 0.0 0.0
0.0 0.0 0.0
0.0 0.0 0.0
0.0 0.0 0.0
0.0 0.0 0.0
0.0 0.0 0.0
0.0 0.0 0.0
0.0 0.0 0.0
0.0 0.0 0.0
0.0 0.0 0.0
0.0 0.0 0.0
0.0 0.0 0.0
0.0 0.0 0.0
0.0 0.0 0.0
0.0 0.0 0.0
0.0 0.0 0.0
0.0 0.0 0.0
0.0 0.0 0.0
0.0 0.0 0.0
0.0 0.0 0.0
0.0 0.0 0.0
0.0 0.0 0.0
0.0 0.0 0.0
0.0 0.0 0.0
0.0 0.0 0.0
0.0 0.0 0.0
0.0 0.0 0.0
0.0 0.0 0.0
0.0 0.0 0.0
0.0 0.0 0.0
0.0 0.0 0.0
0.0 0.0 0.0
0.0 0.0 0.0
0.0 0.0 0.0
0.0 0.0 0.0
0.0 0.0 0.0
0.0 0.0 0.0
0.0 0.0 0.0
0.0 0.0 0.0
0.0 0.0 0.0
0.0 0.0 0.0
0.0 0.0 0.0
0.0 0.0 0.0
0.0 0.0 0.0
0.0 0.0 0.0
0.0 0.0 0.0
0.0 0.0 0.0
0.0 0.0 0.0
0.0 0.0 0.0
0.0 0.0 0.0
0.0 0.0 0.0
0.0 0.0 0.0
0.0 0.0 0.0
0.0 0.0 0.0
0.0 0.0 0.0
0.0 0.0 0.0
0.0 0.0 0.0
0.0 0.0 0.0
0.0 0.0 0.0
0.0 0.0 0.0
0.0 0.0 0.0
0.0 0.0 0.0
0.0 0.0 0.0
0.0 0.0 0.0
0.0 0.0 0.0
0.0 0.0 0.0
0.0 0.0 0.0
0.0 0.0 0.0
0.0 0.0 0.0
0.0 0.0 0.0
0.0 0.0 0.0
0.0 0.0 0.0
0.0 0.0 0.0
0.0 0.0 0.0
0.0 0.0 0.0
0.0 0.0 0.0
0.0 0.0 0.0
0.0 0.0 0.0
0.0 0.0 0.0
0.0 0.0 0.0
0.0 0.0 0.0
0.0 0.0 0.0
0.0 0.0 0.0
0.0 0.0 0.0
0.0 0.0 0.0
0.355507076391 0.0201030282096 0.0
0.62750008043 0.00613055341947 0.0
0.837765201216 0.00823443738158 0.0
0.967493582605 0.00213438334834 0.0
1.00847289701 -4.03160184691e-05 0.0
0.965067634832 -0.00155193170998 0.0
0.841727826586 -0.00923623659001 0.0
0.639023428266 -0.00477609467785 0.0
0.358293316798 -0.0193721560237 0.0
0.0 0.0 0.0
0.0 0.0 0.0
0.0 0.0 0.0
0.0 0.0 0.0
0.0 0.0 0.0
0.0 0.0 0.0
0.0 0.0 0.0
0.0 0.0 0.0
0.0 0.0 0.0
0.0 0.0 0.0
0.0 0.0 0.0
0.0 0.0 0.0
0.0 0.0 0.0
0.0 0.0 0.0
0.0 0.0 0.0
0.0 0.0 0.0
0.0 0.0 0.0
0.0 0.0 0.0
0.0 0.0 0.0
0.0 0.0 0.0
0.0 0.0 0.0
0.0 0.0 0.0
0.0 0.0 0.0
0.0 0.0 0.0
0.0 0.0 0.0
0.0 0.0 0.0
0.0 0.0 0.0
0.0 0.0 0.0
0.0 0.0 0.0
0.0 0.0 0.0
0.0 0.0 0.0
0.0 0.0 0.0
0.0 0.0 0.0
0.0 0.0 0.0
0.0 0.0 0.0
0.0 0.0 0.0
0.0 0.0 0.0
0.0 0.0 0.0
0.0 0.0 0.0
0.0 0.0 0.0
0.0 0.0 0.0
0.0 0.0 0.0
0.0 0.0 0.0
0.0 0.0 0.0
0.0 0.0 0.0
0.0 0.0 0.0
0.0 0.0 0.0
0.0 0.0 0.0
0.0 0.0 0.0
0.0 0.0 0.0
0.0 0.0 0.0
0.0 0.0 0.0
0.0 0.0 0.0
0.0 0.0 0.0
0.0 0.0 0.0
0.0 0.0 0.0
0.0 0.0 0.0
0.0 0.0 0.0
0.0 0.0 0.0
0.0 0.0 0.0
0.0 0.0 0.0
0.0 0.0 0.0
0.0 0.0 0.0
0.0 0.0 0.0
0.0 0.0 0.0
0.0 0.0 0.0
0.0 0.0 0.0
0.0 0.0 0.0
0.0 0.0 0.0
0.0 0.0 0.0
0.0 0.0 0.0
0.0 0.0 0.0
0.0 0.0 0.0
0.0 0.0 0.0
0.0 0.0 0.0
0.0 0.0 0.0
0.0 0.0 0.0
0.0 0.0 0.0
0.0 0.0 0.0
0.0 0.0 0.0
0.0 0.0 0.0
0.0 0.0 0.0
0.0 0.0 0.0
0.0 0.0 0.0
0.0 0.0 0.0
0.0 0.0 0.0
0.0 0.0 0.0
0.0 0.0 0.0
0.0 0.0 0.0
0.0 0.0 0.0
0.0 0.0 0.0
0.0 0.0 0.0
0.0 0.0 0.0
0.0 0.0 0.0
0.0 0.0 0.0
0.0 0.0 0.0
0.0 0.0 0.0
0.0 0.0 0.0
0.0 0.0 0.0
0.0 0.0 0.0
0.0 0.0 0.0
0.0 0.0 0.0
0.0 0.0 0.0
0.0 0.0 0.0
0.0 0.0 0.0
0.0 0.0 0.0
0.0 0.0 0.0
0.0 0.0 0.0
0.0 0.0 0.0
0.0 0.0 0.0
0.0 0.0 0.0
0.0 0.0 0.0
0.0 0.0 0.0
0.0 0.0 0.0
0.0 0.0 0.0
0.0 0.0 0.0
0.0 0.0 0.0
0.0 0.0 0.0
0.0 0.0 0.0
0.0 0.0 0.0
0.0 0.0 0.0
0.0 0.0 0.0
0.0 0.0 0.0
0.0 0.0 0.0
0.0 0.0 0.0
0.0 0.0 0.0
0.0 0.0 0.0
0.0 0.0 0.0
0.0 0.0 0.0
0.0 0.0 0.0
0.0 0.0 0.0
0.0 0.0 0.0
0.0 0.0 0.0
0.0 0.0 0.0
0.0 0.0 0.0
1.10265497498 -0.237292300724 0.0
0.970222483478 -0.00215640785735 0.0
0.964142787605 0.00211217688488 0.0
0.967798623739 0.000804483402899 0.0
0.967720937276 -0.000264499580356 0.0
0.967420334075 0.000119842394232 0.0
0.966093864232 -8.78460361436e-05 0.0
0.966013549808 -0.000431556084914 0.0
0.965998277467 -0.000639482161425 0.0
0.966090921082 -0.000638726749615 0.0
0.966230970504 0.0013010737969 0.0
0.96471080264 0.000806527257206 0.0
0.964754582479 -0.000292462626325 0.0
0.966042500726 -0.000481466846331 0.0
0.967118334015 -8.12452638007e-05 0.0
0.967141240835 -0.00295934074679 0.0
0.981778904269 -0.0435856839606 0.0
0.965160095709 -0.000185912574692 0.0
0.967335403934 0.00687391072542 0.0
0.958672838874 0.00439397962322 0.0
1.33397391079 -0.186131176806 0.0
1.46621909289 -0.0845276421721 0.0
1.48759020718 0.00245386086999 0.0
1.47796873994 -0.0117049469234 0.0
0.908195201356 -0.00267897896322 0.0
0.896219510372 0.00609089565652 0.0
0.897512307183 0.00299991000119 0.0
0.897436536006 0.00268415967513 0.0
0.896317391488 0.00305126019265 0.0
0.8961353229 0.00268807915081 0.0
0.896070680127 0.00253334555956 0.0
0.896263677886 0.00236124948602 0.0
0.895066225886 0.00272844802215 0.0
0.894107085974 0.00313967655549 0.0
0.89260748634 0.00243871593846 0.0
0.892679908747 0.001908813207 0.0
0.894843094785 0.00224561849716 0.0
0.896680643389 0.00148394451305 0.0
0.903103289125 -0.00282833945801 0.0
0.905586719118 0.00543438079301 0.0
0.889368654529 0.000527598569064 0.0
0.889988350493 0.000754570196628 0.0
0.889955294015 0.00182765975038 0.0
0.890222287605 0.00140657097056 0.0
0.841494724288 -0.00176754273361 0.0
0.887267061222 0.000651840969638 0.0
0.887313411279 0.000483879780917 0.0
0.887182380169 0.000275257598516 0.0
0.886885206714 0.00133385509268 0.0
0.878800619131 0.0028685619166 0.0
0.883073000778 0.000996071446572 0.0
0.889527052162 -0.00114109257809 0.0
0.884316565156 0.00047770366032 0.0
0.881010418752 -5.36501308724e-05 0.0
0.859280498318 -0.00302796270256 0.0
0.865288603854 0.00134005389491 0.0
0.81826421372 -0.126873421309 0.0
0.952666693531 -0.0753416471187 0.0
0.397882932784 -0.174110414609 0.0
0.852512234184 -0.000483513830747 0.0
0.860515916934 0.00639532300587 0.0
0.836285689808 -0.00748703783625 0.0
0.84188825612 0.00395961312251 0.0
0.84916084376 -0.00464748849037 0.0
0.802936833111 0.00903959371863 0.0
0.976209093812 -0.100054097491 0.0
0.765956427591 -0.0179986500826 0.0
0.75099493627 -0.00881097971327 0.0
0.750196840997 -0.00746105474393 0.0
0.771755588485 -0.00585478705698 0.0
0.765107468537 -0.00758032797063 0.0
0.763812846917 -0.00627909037905 0.0
0.761486200219 -0.00263680649206 0.0
0.763609523109 -0.00442916093357 0.0
0.763713668111 -0.00440809603023 0.0
0.763809147532 -0.00425874000943 0.0
0.764124914129 -0.00403622266394 0.0
0.767445188893 -0.000207405491988 0.0
0.766733283077 -0.000739162903967 0.0
0.801471353337 -0.00311364252786 0.0
0.768140438653 0.000577853913679 0.0
0.762988697942 0.00713427255519 0.0
0.750907726894 -0.00206897518875 0.0
0.755379988089 -0.00717083406018 0.0
0.80597950318 0.00161770963888 0.0
0.747123535153 0.00552588925317 0.0
0.747142308726 0.00472817492386 0.0
0.746739048181 0.00478366398813 0.0
0.745734933584 0.00483165344961 0.0
0.794759510334 0.00465284418054 0.0
0.745677147372 0.00467176077453 0.0
0.745670655987 0.00456979526937 0.0
0.746024278312 0.00449232455319 0.0
0.739276651395 0.0050820555116 0.0
0.73845675855 0.00500100620218 0.0
0.73776166543 0.0045695112075 0.0
0.738260049272 0.00448706109597 0.0
0.740277965391 0.00470075219435 0.0
0.744192103204 0.00264369916736 0.0
0.777040820729 -0.0104310669365 0.0
0.71714061034 -0.000659139185116 0.0
0.723269626764 0.000375944327996 0.0
1.40676289433 -0.0327304259015 0.0
0.455905072624 -0.143187142576 0.0
1.22470464278 -0.0212184659108 0.0
0.752565285652 -0.000497506501763 0.0
1.18338037332 0.0101071545947 0.0
1.36128478995 -0.152035758473 0.0
0.697752362387 0.00242662288773 0.0
1.3265004637 -0.019891926328 0.0
1.03290587263 -0.297790524549 0.0
1.07561444483 -0.0587305916236 0.0
0.983897199562 -0.00291628199883 0.0
0.674999751342 -0.0108195655528 0.0
0.666727266263 -0.0072473425188 0.0
0.66498826217 -0.00719493362102 0.0
0.663797116068 -0.00717879399553 0.0
0.66416241562 -0.00688500225743 0.0
0.665388506849 -0.00674156007962 0.0
0.667234831764 -0.00692440567461 0.0
0.667829380056 -0.00703528112807 0.0
0.667712330687 -0.00693722842522 0.0
0.667828153139 -0.00684481027552 0.0
0.668286955962 -0.00673670730009 0.0
0.668985521051 -0.00688761580079 0.0
0.669222259561 -0.00656816614434 0.0
0.653815538636 0.0068535297911 0.0
0.673668306433 0.00169521677026 0.0
0.965101821114 0.00104227947115 0.0
0.965180971026 0.00500875228295 0.0
0.678610067569 -0.0136739074085 0.0
0.681402350247 -0.0122937178812 0.0
0.680085808505 -0.0148710658596 0.0
0.691183082305 -0.0163644704491 0.0
1.15260680003 0.0192531898298 0.0
0.687969381568 -0.0154136945912 0.0
0.694388254459 0.00156543889648 0.0
0.700968232938 0.000532266706102 0.0
0.701214835988 0.000672692695012 0.0
0.701174094281 0.000791489832883 0.0
0.698452188076 -0.00070302232342 0.0
0.702706140062 0.00121907083567 0.0
0.699413903892 -0.00134514606383 0.0
0.699509781867 -0.00154833466002 0.0
1.14021776169 -0.00708812115784 0.0
0.750119871744 -0.0428206101286 0.0
0.970743021066 -0.00134188510443 0.0
0.970711869749 -0.000779328901487 0.0
0.970112007272 -0.000635467713624 0.0
0.969482382659 -0.00139112681884 0.0
0.968696357814 0.000940439571905 0.0
0.969437438262 -0.00161748696113 0.0
0.969439295782 -0.00185135692049 0.0
0.969543567215 -0.00143138348794 0.0
0.967936099125 -0.000412656468267 0.0
0.966741239896 -0.00144816932549 0.0
0.967505882573 -0.00242219955421 0.0
0.969230209059 -0.00215393241631 0.0
0.969388967322 -0.00254029420647 0.0
0.967714657719 -0.00601045562872 0.0
0.970868658878 -0.00409887671121 0.0
0.967158951297 -0.00553822534668 0.0
0.966242383202 0.000903257949196 0.0
1.02504142137 -0.168449951921 0.0
0.578534932309 -0.0236252160067 0.0
0.970561097801 0.00124131333192 0.0
0.970514902429 0.00116639691824 0.0
0.969340388787 0.00170488579516 0.0
0.970156397554 0.00276948149396 0.0
0.969080134546 0.00114876777645 0.0
0.9690550447 0.00096243926146 0.0
0.969101624063 0.000772854240287 0.0
0.969533859385 0.00116314770674 0.0
0.967816832308 0.00128552788184 0.0
0.967355512116 1.82759264875e-05 0.0
0.59521567384 -0.0201597662124 0.0
0.968580028285 -0.000644985333461 0.0
0.96988299895 0.000131266610491 0.0
0.970008123327 -0.00138269457171 0.0
0.966280823601 -0.00246963802432 0.0
0.969801465221 0.00559763393418 0.0
0.833322412264 -0.0714564970716 0.0
1.18183382106 -0.275408623483 0.0
0.577234220663 -1.31795988664e-05 0.0
0.596573735368 0.00485818134951 0.0
1.19369790272 -0.0386661837125 0.0
0.013241817845 -0.0222244217595 0.0
0.562400224198 -0.00529611960022 0.0
0.588558929462 -0.00400330919302 0.0
0.599384033016 0.00650629390078 0.0
0.578290380982 0.00887164312007 0.0
1.05644215176 -0.0136299441629 0.0
0.554270622765 -0.000227190435438 0.0
0.578692008591 -0.00198204448749 0.0
0.555669536935 -0.000262527661277 0.0
0.626438949947 -0.00614194839288 0.0
0.629625634603 0.00516578925275 0.0
0.600820913064 -0.00269296671303 0.0
0.630988376369 0.0037207165668 0.0
0.630789855584 0.00363009075499 0.0
0.629862637724 0.00375251128345 0.0
0.629760743896 0.00361421923896 0.0
0.629677353264 0.00355393122656 0.0
0.629989258899 0.00348776622119 0.0
0.625319040396 0.00386226488615 0.0
0.624882781211 0.00390013530476 0.0
0.623768868813 0.00364303773491 0.0
0.623672525105 0.00348839052982 0.0
0.625382377322 0.0036130496684 0.0
0.627468792171 0.0030303778448 0.0
0.596852698374 0.00627708105335 0.0
0.639806566222 -0.00422847320974 0.0
0.555869018287 -0.000155623344911 0.0
0.607148484845 0.00269836558316 0.0
0.553828595165 0.00641678705062 0.0
0.555829005558 -6.2733121042e-05 0.0
0.548618585183 0.00691201110048 0.0
1.18707708024 -0.00956986311836 0.0
0.563684776771 0.00395516200583 0.0
0.565496880921 -0.00817713809197 0.0
0.5603342772 0.00473507685935 0.0
0.561453646494 0.00298430097943 0.0
0.563451671903 0.0042047935955 0.0
0.568436198267 0.00433926513475 0.0
0.513389382418 -0.00260380103903 0.0
1.07576328065 -0.00546330302947 0.0
1.09010702356 0.0152322902153 0.0
0.987244244255 -0.100682485553 0.0
0.917099426239 0.000105780941668 0.0
0.554140748183 0.00117668227674 0.0
0.544613910616 0.00171521395073 0.0
1.03766097234 -0.0282341978617 0.0
0.593486209747 0.00286881087711 0.0
0.935976605684 -0.0477558482178 0.0
0.604637448668 -0.000923468386441 0.0
0.971427622371 -0.00582804297265 0.0
0.454991941371 -0.0804164769077 0.0
0.570406504608 0.00243063208613 0.0
0.590543931122 0.00146763723451 0.0
0.59698227052 0.0023529438322 0.0
0.912768972165 -0.000139751852374 0.0
0.902497422406 -0.000192693642434 0.0
0.913210293926 0.00625023638307 0.0
1.06482690256 -0.133168630171 0.0
0.900610877288 0.00377681745745 0.0
0.903115423664 -0.00137595413242 0.0
0.903050599374 -0.0020977478454 0.0
0.902348193835 -0.00177812483466 0.0
0.901591019282 -0.00200432154826 0.0
0.901534782095 -0.00221397522027 0.0
0.90159620228 -0.00238896003664 0.0
0.901606206046 -0.00231202619055 0.0
0.899784164854 -0.00163922085465 0.0
0.898339147697 -0.00209860204733 0.0
0.898170706079 -0.00282107321079 0.0
0.899625373655 -0.00276533703375 0.0
0.901662470307 -0.00275537456913 0.0
0.905331982165 -0.00628978174951 0.0
0.904290409711 -0.00423946010464 0.0
0.90657464481 -0.0022267237179 0.0
0.909743143906 -0.00281342089164 0.0
0.907884426036 -0.002852675786 0.0
0.906761478531 -0.0016183048364 0.0
0.910222630744 -0.000516145813236 0.0
0.918333001933 -0.00191419680913 0.0
0.92044243336 -0.000831788251802 0.0
0.918471480834 -0.00180523050336 0.0
0.920176670892 -0.00187364784754 0.0
0.91851462233 -0.00163450631622 0.0
0.92016274283 -0.00158144113382 0.0
0.91922516483 -0.00109179952389 0.0
0.154709632255 -0.0774539259007 0.0
0.899922989331 0.000108572470576 0.0
0.908678520697 -0.00800140703566 0.0
0.918410307142 0.00906906474965 0.0
0.885088729818 -0.0620499833783 0.0
0.52735407402 -0.00334716571907 0.0
0.520348906454 0.00493559960902 0.0
0.320415515781 -0.170085161571 0.0
0.887537307472 -0.00626498744538 0.0
0.885255176074 0.00827236873545 0.0
0.896008819309 -0.00133834459559 0.0
0.61312012837 -0.00290505365009 0.0
0.714025059709 -0.224589945136 0.0
0.883321803765 0.000508135432635 0.0
0.553759862025 -0.0105312354913 0.0
0.824158317578 -0.210016796327 0.0
1.48564028664 0.00780036325403 0.0
1.03682975 0.00084808233132 0.0
0.895847745666 0.00439592812192 0.0
0.925351830223 0.00400663324698 0.0
0.917167023205 0.00203509508963 0.0
0.921375026126 -0.00858972530842 0.0
0.913843247653 -0.00454863964621 0.0
1.46473966589 -0.0147907114858 0.0
0.990370700433 -2.1024373849e-05 0.0
0.917103520509 0.00277571780602 0.0
0.905818099949 -0.00128422537154 0.0
0.905590760703 -0.00132998387683 0.0
0.905459351697 0.0004429900437 0.0
0.904279898419 -0.00106897950119 0.0
0.904261224993 -0.00141958430698 0.0
0.925783372357 0.00473707527156 0.0
0.904221386034 -0.00157071865731 0.0
0.904484512123 -0.00169018586766 0.0
0.897285660251 -0.000530703313703 0.0
0.89644949653 -0.000455832853745 0.0
0.895537943526 -0.00123849222418 0.0
0.896029301929 -0.00158071348086 0.0
0.898287126631 -0.00119054840244 0.0
0.900291383084 -0.00285867929572 0.0
0.893919120504 -0.00429665302476 0.0
0.884315994408 0.00864274503593 0.0
0.935394527171 -0.00506703945874 0.0
0.932907968536 -0.0225675106159 0.0
0.931327891773 -0.00607003778921 0.0
0.934564821373 -0.00320487506852 0.0
0.937723838451 -0.00355289212731 0.0
0.936258992463 -0.003284254697 0.0
0.935277457772 -0.00200715607377 0.0
0.935855757415 -0.000862814449955 0.0
0.938549485369 7.91143561151e-05 0.0
0.939778333635 -0.000867390170788 0.0
0.93949066969 -0.00180556941997 0.0
0.937461036699 -0.00269967907586 0.0
0.939608293151 -0.00105782357531 0.0
0.937428317979 -0.00278649538189 0.0
0.93763775452 -0.0022457711932 0.0
0.93749984705 -0.00256297255085 0.0
0.440883567994 0.0233324025709 0.0
0.499504845907 -0.00264364197663 0.0
0.42722762423 0.00769094274343 0.0
0.426989321471 0.00749345860998 0.0
0.426671041425 0.00750655340407 0.0
0.426131365842 0.00751492984837 0.0
0.426031164304 0.00747056366634 0.0
0.426060727936 0.00743707822633 0.0
0.426231561453 0.0073821915272 0.0
0.422971044432 0.00760702907487 0.0
0.422252836129 0.00755146996194 0.0
0.421823613134 0.00742197758278 0.0
0.422246983709 0.00744262828639 0.0
0.423289841267 0.0075243394783 0.0
0.428004984648 0.00651617241297 0.0
1.41036334912 -0.13402001273 0.0
0.44139386971 0.0157601125234 0.0
0.962017132007 -0.284803878454 0.0
0.436771538962 0.0149457621542 0.0
0.437627128146 0.0149342776613 0.0
0.445073139915 0.0169499617157 0.0
0.445379545106 0.0164786047699 0.0
0.445654925121 0.0163662895856 0.0
0.445580205082 0.016245194976 0.0
0.445199192517 0.0175204342705 0.0
0.307955969277 -0.0106364695275 0.0
0.469857845046 -0.0102975114527 0.0
0.471392724156 -0.0112635186579 0.0
0.479255618834 -0.0043640005036 0.0
0.44013326694 -0.00815151001398 0.0
0.454019179434 -0.0117617716235 0.0
0.726255976277 -0.0277902984213 0.0
0.541285621043 -0.0386284393603 0.0
0.484308611388 -0.008662178283 0.0
0.418352331962 -0.00847429652547 0.0
0.403182526798 0.00575534975095 0.0
1.20684020423 -0.156426730393 0.0
0.505055051597 -0.0222335600497 0.0
1.04361730334 -0.0697641320439 0.0
0.50400061242 -0.00809321591562 0.0
0.506927078721 -0.00855369348218 0.0
0.534924702559 -0.0101158796136 0.0
0.545475996716 -0.0222920052111 0.0
0.537097041265 -0.0227506200579 0.0
0.344416293778 -0.0242024802002 0.0
0.540417076965 0.00595442715501 0.0
0.54409246177 0.00732494007307 0.0
0.541403787562 0.00544820193919 0.0
0.539435273828 0.00731167017085 0.0
0.523532023813 -0.00435925447262 0.0
0.539658288215 0.00733406985149 0.0
0.539538782042 0.00729625443994 0.0
0.536642250003 0.0076883360077 0.0
0.541819211202 0.00411685214576 0.0
0.494564037823 0.00778903992892 0.0
1.47080380448 -0.0385649359174 0.0
1.48499986711 -0.000722651453512 0.0
0.554207250301 0.0103305883427 0.0
0.557391461779 0.00654901258807 0.0
0.564201457642 0.0021990560115 0.0
0.557184972212 0.00643749371834 0.0
0.55481944374 0.00598078052201 0.0
0.556446709542 0.00653169951975 0.0
0.553354745351 0.00623070163082 0.0
0.556206832459 0.00643234251701 0.0
0.552035224376 0.0061185899217 0.0
0.556102718452 0.00638409901278 0.0
0.552259584091 0.00629920034348 0.0
0.556325199441 0.00633029358468 0.0
0.553421017343 0.00652178710359 0.0
0.554196415405 0.00651991700789 0.0
1.17085436558 -0.20681655801 0.0
0.933445012984 -0.0109699273545 0.0
0.344824651389 -0.00431605008234 0.0
0.353233902056 0.00549662818943 0.0
0.915579580735 -0.217832108042 0.0
0.539896504519 0.00481101912271 0.0
1.47874771943 -0.00364094076379 0.0
0.84051664041 0.00451004074027 0.0
0.834569897477 -0.0115659516014 0.0
0.842266341572 -0.00794990457816 0.0
0.848788015211 -0.00825346426596 0.0
0.853951203162 -0.00739034430588 0.0
0.850974287553 -0.0066370381743 0.0
0.845517691254 -0.00574438881658 0.0
0.215408713823 -0.0491866387275 0.0
0.847256979614 -0.00769681430821 0.0
0.847214340677 -0.00780532430897 0.0
0.847374173051 -0.00761659840236 0.0
0.847428219158 -0.00746012501467 0.0
0.850167823862 -0.0053626882061 0.0
0.849168640477 -0.00643233449067 0.0
0.854763089184 -0.00728324414813 0.0
0.850301126676 -0.00586892579653 0.0
0.963815974673 0.00887140038333 0.0
0.957564458887 -0.0019757174884 0.0
0.937484759729 0.00465067671239 0.0
0.937296615708 0.00215881118827 0.0
0.937251875004 0.00108541188181 0.0
0.827616942947 -0.0132766532571 0.0
0.563509309748 -0.0274014371815 0.0
0.936804311619 0.00133042022096 0.0
0.935635504261 0.00127388504174 0.0
0.935606174542 0.000975993039188 0.0
0.935610591817 0.000798453954387 0.0
0.93580472626 0.000770287910966 0.0
0.931788652455 0.00175935808529 0.0
0.333501760029 0.0181048030654 0.0
0.331530111641 0.0183977391908 0.0
0.33062319835 0.0182787274143 0.0
0.330540712599 0.0183257216307 0.0
0.331109674681 0.0184442677349 0.0
0.331522165414 0.0184608881551 0.0
0.33506077587 0.0187307773872 0.0
0.334803515067 0.0187433576903 0.0
0.334835755641 0.0187638370099 0.0
0.334926950998 0.0187901898801 0.0
0.335432814576 0.018803379704 0.0
0.335597473852 0.0188106707835 0.0