# vtk DataFile Version 2.0
2D Simulation Python
ASCII
DATASET UNSTRUCTURED_GRID
FIELD FieldData 1
NODES 1 2 int
1869 3447

POINTS 1869 double
0.0 1.0 0.0
0.0 3.0 0.0
40.0 3.0 0.0
40.0 0.0 0.0
4.0 0.0 0.0
4.0 1.0 0.0
0.0 1.285714285716665 0.0
0.0 1.571428571430556 0.0
0.0 1.857142857144446 0.0
0.0 2.142857142858336 0.0
0.0 2.428571428572225 0.0
0.0 2.714285714286111 0.0
0.2985074626863422 3.0 0.0
0.5970149253727002 3.0 0.0
0.8955223880590588 3.0 0.0
1.194029850745382 3.0 0.0
1.492537313431632 3.0 0.0
1.791044776117834 3.0 0.0
2.089552238804087 3.0 0.0
2.388059701490418 3.0 0.0
2.686567164176777 3.0 0.0
2.985074626863136 3.0 0.0
3.283582089549494 3.0 0.0
3.582089552235852 3.0 0.0
3.880597014922211 3.0 0.0
4.179104477608569 3.0 0.0
4.477611940294928 3.0 0.0
4.776119402981237 3.0 0.0
5.074626865667346 3.0 0.0
5.373134328353175 3.0 0.0
5.671641791038871 3.0 0.0
5.970149253724567 3.0 0.0
6.268656716410264 3.0 0.0
6.56716417909596 3.0 0.0
6.865671641781655 3.0 0.0
7.164179104467352 3.0 0.0
7.462686567153049 3.0 0.0
7.761194029838745 3.0 0.0
8.05970149252444 3.0 0.0
8.358208955210136 3.0 0.0
8.656716417895833 3.0 0.0
8.95522388058153 3.0 0.0
9.253731343267225 3.0 0.0
9.552238805952921 3.0 0.0
9.850746268638618 3.0 0.0
10.14925373132431 3.0 0.0
10.44776119401001 3.0 0.0
10.7462686566957 3.0 0.0
11.0447761193814 3.0 0.0
11.34328358206709 3.0 0.0
11.64179104475279 3.0 0.0
11.94029850743848 3.0 0.0
12.23880597012418 3.0 0.0
12.53731343280987 3.0 0.0
12.83582089549557 3.0 0.0
13.13432835818127 3.0 0.0
13.43283582086696 3.0 0.0
13.73134328355265 3.0 0.0
14.02985074623835 3.0 0.0
14.32835820892405 3.0 0.0
14.62686567160974 3.0 0.0
14.92537313429544 3.0 0.0
15.22388059698113 3.0 0.0
15.52238805966683 3.0 0.0
15.82089552235252 3.0 0.0
16.11940298503862 3.0 0.0
16.41791044772535 3.0 0.0
16.71641791041237 3.0 0.0
17.01492537309939 3.0 0.0
17.31343283578641 3.0 0.0
17.61194029847344 3.0 0.0
17.91044776116046 3.0 0.0
18.20895522384748 3.0 0.0
18.5074626865345 3.0 0.0
18.80597014922152 3.0 0.0
19.10447761190854 3.0 0.0
19.40298507459556 3.0 0.0
19.70149253728258 3.0 0.0
19.9999999999696 3.0 0.0
20.29850746265662 3.0 0.0
20.59701492534364 3.0 0.0
20.89552238803066 3.0 0.0
21.19402985071768 3.0 0.0
21.49253731340471 3.0 0.0
21.79104477609173 3.0 0.0
22.08955223877875 3.0 0.0
22.38805970146577 3.0 0.0
22.68656716415279 3.0 0.0
22.98507462683981 3.0 0.0
23.28358208952683 3.0 0.0
23.58208955221385 3.0 0.0
23.88059701490088 3.0 0.0
24.1791044775879 3.0 0.0
24.47761194027491 3.0 0.0
24.77611940296193 3.0 0.0
25.07462686564896 3.0 0.0
25.37313432833598 3.0 0.0
25.671641791023 3.0 0.0
25.97014925371002 3.0 0.0
26.26865671639704 3.0 0.0
26.56716417908406 3.0 0.0
26.86567164177108 3.0 0.0
27.1641791044581 3.0 0.0
27.46268656714512 3.0 0.0
27.76119402983214 3.0 0.0
28.05970149251916 3.0 0.0
28.35820895520619 3.0 0.0
28.65671641789321 3.0 0.0
28.95522388058023 3.0 0.0
29.25373134326725 3.0 0.0
29.55223880595426 3.0 0.0
29.85074626864129 3.0 0.0
30.14925373132831 3.0 0.0
30.44776119401533 3.0 0.0
30.74626865670236 3.0 0.0
31.04477611938937 3.0 0.0
31.34328358207639 3.0 0.0
31.64179104476341 3.0 0.0
31.94029850745043 3.0 0.0
32.23880597013746 3.0 0.0
32.53731343282448 3.0 0.0
32.8358208955115 3.0 0.0
33.13432835819852 3.0 0.0
33.43283582088554 3.0 0.0
33.73134328357256 3.0 0.0
34.02985074625958 3.0 0.0
34.3283582089466 3.0 0.0
34.62686567163362 3.0 0.0
34.92537313432064 3.0 0.0
35.22388059700766 3.0 0.0
35.52238805969468 3.0 0.0
35.8208955223817 3.0 0.0
36.11940298506872 3.0 0.0
36.41791044775574 3.0 0.0
36.71641791044276 3.0 0.0
37.01492537312978 3.0 0.0
37.31343283581681 3.0 0.0
37.61194029850382 3.0 0.0
37.91044776119085 3.0 0.0
38.20895522387787 3.0 0.0
38.5074626865649 3.0 0.0
38.80597014925192 3.0 0.0
39.10447761193894 3.0 0.0
39.40298507462596 3.0 0.0
39.70149253731298 3.0 0.0
40.0 2.700000000001935 0.0
40.0 2.400000000003002 0.0
40.0 2.100000000002161 0.0
40.0 1.800000000002828 0.0
40.0 1.500000000004164 0.0
40.0 1.200000000003365 0.0
40.0 0.9000000000025241 0.0
40.0 0.6000000000016827 0.0
40.0 0.3000000000008414 0.0
39.70000000000115 0.0 0.0
39.40000000000229 0.0 0.0
39.10000000000343 0.0 0.0
38.80000000000458 0.0 0.0
38.50000000000572 0.0 0.0
38.20000000000687 0.0 0.0
37.90000000000801 0.0 0.0
37.60000000000915 0.0 0.0
37.3000000000103 0.0 0.0
37.00000000001144 0.0 0.0
36.70000000001259 0.0 0.0
36.40000000001373 0.0 0.0
36.10000000001487 0.0 0.0
35.80000000001602 0.0 0.0
35.50000000001717 0.0 0.0
35.20000000001831 0.0 0.0
34.90000000001945 0.0 0.0
34.6000000000206 0.0 0.0
34.30000000002174 0.0 0.0
34.00000000002289 0.0 0.0
33.70000000002403 0.0 0.0
33.40000000002517 0.0 0.0
33.10000000002632 0.0 0.0
32.80000000002747 0.0 0.0
32.50000000002861 0.0 0.0
32.20000000002975 0.0 0.0
31.9000000000309 0.0 0.0
31.60000000003204 0.0 0.0
31.30000000003319 0.0 0.0
31.00000000003433 0.0 0.0
30.70000000003548 0.0 0.0
30.40000000003662 0.0 0.0
30.10000000003777 0.0 0.0
29.80000000003891 0.0 0.0
29.50000000004005 0.0 0.0
29.2000000000412 0.0 0.0
28.90000000004234 0.0 0.0
28.60000000004348 0.0 0.0
28.30000000004463 0.0 0.0
28.00000000004577 0.0 0.0
27.70000000004692 0.0 0.0
27.40000000004806 0.0 0.0
27.1000000000492 0.0 0.0
26.80000000005035 0.0 0.0
26.50000000005149 0.0 0.0
26.20000000005263 0.0 0.0
25.90000000005378 0.0 0.0
25.60000000005492 0.0 0.0
25.30000000005606 0.0 0.0
25.00000000005721 0.0 0.0
24.70000000005835 0.0 0.0
24.40000000005949 0.0 0.0
24.10000000006064 0.0 0.0
23.80000000006178 0.0 0.0
23.50000000006293 0.0 0.0
23.20000000006407 0.0 0.0
22.90000000006521 0.0 0.0
22.60000000006636 0.0 0.0
22.3000000000675 0.0 0.0
22.00000000006795 0.0 0.0
21.70000000006683 0.0 0.0
21.40000000006501 0.0 0.0
21.1000000000632 0.0 0.0
20.80000000006138 0.0 0.0
20.50000000005956 0.0 0.0
20.20000000005775 0.0 0.0
19.90000000005593 0.0 0.0
19.60000000005412 0.0 0.0
19.3000000000523 0.0 0.0
19.00000000005049 0.0 0.0
18.70000000004867 0.0 0.0
18.40000000004686 0.0 0.0
18.10000000004504 0.0 0.0
17.80000000004323 0.0 0.0
17.50000000004141 0.0 0.0
17.2000000000396 0.0 0.0
16.90000000003779 0.0 0.0
16.60000000003597 0.0 0.0
16.30000000003416 0.0 0.0
16.00000000003234 0.0 0.0
15.70000000003053 0.0 0.0
15.40000000002871 0.0 0.0
15.1000000000269 0.0 0.0
14.80000000002508 0.0 0.0
14.50000000002327 0.0 0.0
14.20000000002145 0.0 0.0
13.90000000001964 0.0 0.0
13.60000000001783 0.0 0.0
13.30000000001601 0.0 0.0
13.0000000000142 0.0 0.0
12.70000000001238 0.0 0.0
12.40000000001056 0.0 0.0
12.10000000000875 0.0 0.0
11.80000000000694 0.0 0.0
11.50000000000512 0.0 0.0
11.20000000000331 0.0 0.0
10.90000000000149 0.0 0.0
10.59999999999968 0.0 0.0
10.29999999999787 0.0 0.0
9.99999999999605 0.0 0.0
9.699999999994237 0.0 0.0
9.399999999992424 0.0 0.0
9.099999999990604 0.0 0.0
8.799999999988792 0.0 0.0
8.499999999986976 0.0 0.0
8.199999999985256 0.0 0.0
7.899999999985106 0.0 0.0
7.599999999986252 0.0 0.0
7.299999999987392 0.0 0.0
6.999999999988546 0.0 0.0
6.699999999989686 0.0 0.0
6.399999999990833 0.0 0.0
6.099999999991979 0.0 0.0
5.799999999993126 0.0 0.0
5.499999999994273 0.0 0.0
5.199999999995413 0.0 0.0
4.899999999996567 0.0 0.0
4.599999999997706 0.0 0.0
4.299999999998853 0.0 0.0
4.0 0.2499999999994109 0.0
4.0 0.4999999999986918 0.0
4.0 0.7499999999993401 0.0
3.714285714284526 1.0 0.0
3.428571428569844 1.0 0.0
3.142857142857542 1.0 0.0
2.85714285714524 1.0 0.0
2.571428571432937 1.0 0.0
2.285714285720635 1.0 0.0
2.000000000008246 1.0 0.0
1.714285714292858 1.0 0.0
1.428571428577383 1.0 0.0
1.142857142861906 1.0 0.0
0.8571428571464295 1.0 0.0
0.5714285714309533 1.0 0.0
0.2857142857154762 1.0 0.0
5.440895737063815 1.5321810752057226 0.0
38.359631109480205 1.5447862624578594 0.0
36.55156595862513 1.5678345293898692 0.0
34.78710000302187 1.5642234316343742 0.0
32.9971954225337 1.5616773154845147 0.0
31.206213093159832 1.5616241273381726 0.0
29.41743466562333 1.560813469344192 0.0
27.626772764562254 1.5595442904607533 0.0
25.8345099987122 1.5596010883176028 0.0
24.038234267385175 1.5598722611419031 0.0
22.28410800461182 1.5615988969890857 0.0
20.49887470353422 1.5590348043573192 0.0
18.706375623998746 1.5616894963191854 0.0
16.914750360834766 1.563910776410858 0.0
15.128618847375977 1.5556246456016476 0.0
13.33374344126039 1.5511890511266595 0.0
7.030759682398678 1.534442092687481 0.0
11.566049076409328 1.4969212260342677 0.0
8.761848711004971 1.5139156602083867 0.0
10.122611928795317 1.6236584616968261 0.0
4.526369532015368 1.9188661001514808 0.0
3.5185905812745153 2.0252610404151303 0.0
0.8929602934338949 2.0484837616277805 0.0
2.1303862954741786 2.0128365285831764 0.0
37.45664389250272 1.9215745158530688 0.0
35.76980667423149 1.9566969156967804 0.0
33.97560565425424 1.951129826056218 0.0
32.18468257484926 1.9502423738014634 0.0
30.393953542480887 1.9506962134922115 0.0
28.603869422410817 1.9490708688174188 0.0
26.81243432007293 1.9489436858605451 0.0
25.020320832831715 1.9489079511655873 0.0
23.222921081222125 1.9532226644536412 0.0
21.438577064798203 1.9510574224417399 0.0
19.648320628121976 1.9527003755547225 0.0
17.85646983812719 1.9551347438424853 0.0
16.066386904528457 1.9524591667910451 0.0
14.276194644033797 1.949504085905422 0.0
12.469240233774332 1.9331189870611798 0.0
7.903765740008337 1.9170293474259146 0.0
32.11693620250729 1.0153772846462719 0.0
33.9052719667752 1.018314117442152 0.0
30.327339895719167 1.0165516066818012 0.0
35.685997274784626 1.0240920134690144 0.0
37.47826336526687 0.9143900830224962 0.0
28.544382306259507 1.008832531079308 0.0
26.750770900913658 1.008697819364698 0.0
24.956031422002802 1.0087920104531238 0.0
23.15163741793711 1.0082816543559 0.0
21.376334792735403 0.9954454147104485 0.0
19.585082890394872 1.0071215101888775 0.0
17.79121251690518 1.0187009575384915 0.0
16.01281168302144 1.0009471538479193 0.0
14.223190832776599 0.9947506625384457 0.0
12.435116110262122 0.9533072381305729 0.0
7.904118015944833 0.9516540425309552 0.0
6.260075186818547 0.9882083828748837 0.0
6.226199612153765 2.037271304307933 0.0
4.831970914683074 0.828771924662698 0.0
[...]
POINT_DATA 1869
VECTORS vector double
0.0 0.0 0.0
0.0 0.0 0.0
0.0 0.0 0.0
0.0 0.0 0.0
0.0 0.0 0.0
0.0 0.0 0.0
0.734693877556 0.0 0.0
1.22448979592 0.0 0.0
1.4693877551 0.0 0.0
1.4693877551 0.0 0.0
1.22448979592 0.0 0.0
0.73469387755 0.0 0.0
0.0 0.0 0.0
0.0 0.0 0.0
0.0 0.0 0.0
0.0 0.0 0.0
0.0 0.0 0.0
0.0 0.0 0.0
0.0 0.0 0.0
0.0 0.0 0.0
0.0 0.0 0.0
0.0 0.0 0.0
0.0 0.0 0.0
0.0 0.0 0.0
0.0 0.0 0.0
0.0 0.0 0.0
0.0 0.0 0.0
0.0 0.0 0.0
0.0 0.0 0.0
0.0 0.0 0.0
0.0 0.0 0.0
0.0 0.0 0.0
0.0 0.0 0.0
0.0 0.0 0.0
0.0 0.0 0.0
0.0 0.0 0.0
0.0 0.0 0.0
0.0 0.0 0.0
0.0 0.0 0.0
0.0 0.0 0.0
0.0 0.0 0.0
0.0 0.0 0.0
0.0 0.0 0.0
0.0 0.0 0.0
0.0 0.0 0.0
0.0 0.0 0.0
0.0 0.0 0.0
0.0 0.0 0.0
0.0 0.0 0.0
0.0 0.0 0.0
0.0 0.0 0.0
0.0 0.0 0.0
0.0 0.0 0.0
0.0 0.0 0.0
0.0 0.0 0.0
0.0 0.0 0.0
0.0 0.0 0.0
0.0 0.0 0.0
0.0 0.0 0.0
0.0 0.0 0.0
0.0 0.0 0.0
0.0 0.0 0.0
0.0 0.0 0.0
0.0 0.0 0.0
0.0 0.0 0.0
0.0 0.0 0.0
0.0 0.0 0.0
0.0 0.0 0.0
0.0 0.0 0.0
0.0 0.0 0.0
0.0 0.0 0.0
0.0 0.0 0.0
0.0 0.0 0.0
0.0 0.0 0.0
0.0 0.0 0.0
0.0 0.0 0.0
0.0 0.0 0.0
0.0 0.0 0.0
0.0 0.0 0.0
0.0 0.0 0.0
0.0 0.0 0.0
0.0 0.0 0.0
0.0 0.0 0.0
0.0 0.0 0.0
0.0 0.0 0.0
0.0 0.0 0.0
0.0 0.0 0.0
0.0 0.0 0.0
0.0 0.0 0.0
0.0 0.0 0.0
0.0 0.0 0.0
0.0 0.0 0.0
0.0 0.0 0.0
0.0 0.0 0.0
0.0 0.0 0.0
0.0 0.0 0.0
0.0 0.0 0.0
0.0 0.0 0.0
0.0 0.0 0.0
0.0 0.0 0.0
0.0 0.0 0.0
0.0 0.0 0.0
0.0 0.0 0.0
0.0 0.0 0.0
0.0 0.0 0.0
0.0 0.0 0.0
0.0 0.0 0.0
0.0 0.0 0.0
0.0 0.0 0.0
0.0 0.0 0.0
0.0 0.0 0.0
0.0 0.0 0.0
0.0 0.0 0.0
0.0 0.0 0.0
0.0 0.0 0.0
0.0 0.0 0.0
0.0 0.0 0.0
0.0 0.0 0.0
0.0 0.0 0.0
0.0 0.0 0.0
0.0 0.0 0.0
0.0 0.0 0.0
0.0 0.0 0.0
0.0 0.0 0.0
0.0 0.0 0.0
0.0 0.0 0.0
0.0 0.0 0.0
0.0 0.0 0.0
0.0 0.0 0.0
0.0 0.0 0.0
0.0 0.0 0.0
0.0 0.0 0.0
0.0 0.0 0.0
0.0 0.0 0.0
0.0 0.0 0.0
0.0 0.0 0.0
0.0 0.0 0.0
0.0 0.0 0.0
0.0 0.0 0.0
0.0 0.0 0.0
0.0 0.0 0.0
0.0 0.0 0.0
0.0 0.0 0.0
0.0 0.0 0.0
0.0 0.0 0.0
0.33885905171 0.0189054985407 0.0
0.610595598269 0.00662771837394 0.0
0.83780724277 0.00945904326819 0.0
0.988555844028 0.00325709003224 0.0
1.03931249793 0.000205978076928 0.0
0.985959854612 -0.00251197692273 0.0
0.842327013205 -0.0104945803268 0.0
0.621712259976 -0.00513473691246 0.0
0.340595783687 -0.0181741773336 0.0
0.0 0.0 0.0
0.0 0.0 0.0
0.0 0.0 0.0
0.0 0.0 0.0
0.0 0.0 0.0
0.0 0.0 0.0
0.0 0.0 0.0
0.0 0.0 0.0
0.0 0.0 0.0
0.0 0.0 0.0
0.0 0.0 0.0
0.0 0.0 0.0
0.0 0.0 0.0
0.0 0.0 0.0
0.0 0.0 0.0
0.0 0.0 0.0
0.0 0.0 0.0
0.0 0.0 0.0
0.0 0.0 0.0
0.0 0.0 0.0
0.0 0.0 0.0
0.0 0.0 0.0
0.0 0.0 0.0
0.0 0.0 0.0
0.0 0.0 0.0
0.0 0.0 0.0
0.0 0.0 0.0
0.0 0.0 0.0
0.0 0.0 0.0
0.0 0.0 0.0
0.0 0.0 0.0
0.0 0.0 0.0
0.0 0.0 0.0
0.0 0.0 0.0
0.0 0.0 0.0
0.0 0.0 0.0
0.0 0.0 0.0
0.0 0.0 0.0
0.0 0.0 0.0
0.0 0.0 0.0
0.0 0.0 0.0
0.0 0.0 0.0
0.0 0.0 0.0
0.0 0.0 0.0
0.0 0.0 0.0
0.0 0.0 0.0
0.0 0.0 0.0
0.0 0.0 0.0
0.0 0.0 0.0
0.0 0.0 0.0
0.0 0.0 0.0
0.0 0.0 0.0
0.0 0.0 0.0
0.0 0.0 0.0
0.0 0.0 0.0
0.0 0.0 0.0
0.0 0.0 0.0
0.0 0.0 0.0
0.0 0.0 0.0
0.0 0.0 0.0
0.0 0.0 0.0
0.0 0.0 0.0
0.0 0.0 0.0
0.0 0.0 0.0
0.0 0.0 0.0
0.0 0.0 0.0
0.0 0.0 0.0
0.0 0.0 0.0
0.0 0.0 0.0
0.0 0.0 0.0
0.0 0.0 0.0
0.0 0.0 0.0
0.0 0.0 0.0
0.0 0.0 0.0
0.0 0.0 0.0
0.0 0.0 0.0
0.0 0.0 0.0
0.0 0.0 0.0
0.0 0.0 0.0
0.0 0.0 0.0
0.0 0.0 0.0
0.0 0.0 0.0
0.0 0.0 0.0
0.0 0.0 0.0
0.0 0.0 0.0
0.0 0.0 0.0
0.0 0.0 0.0
0.0 0.0 0.0
0.0 0.0 0.0
0.0 0.0 0.0
0.0 0.0 0.0
0.0 0.0 0.0
0.0 0.0 0.0
0.0 0.0 0.0
0.0 0.0 0.0
0.0 0.0 0.0
0.0 0.0 0.0
0.0 0.0 0.0
0.0 0.0 0.0
0.0 0.0 0.0
0.0 0.0 0.0
0.0 0.0 0.0
0.0 0.0 0.0
0.0 0.0 0.0
0.0 0.0 0.0
0.0 0.0 0.0
0.0 0.0 0.0
0.0 0.0 0.0
0.0 0.0 0.0
0.0 0.0 0.0
0.0 0.0 0.0
0.0 0.0 0.0
0.0 0.0 0.0
0.0 0.0 0.0
0.0 0.0 0.0
0.0 0.0 0.0
0.0 0.0 0.0
0.0 0.0 0.0
0.0 0.0 0.0
0.0 0.0 0.0
0.0 0.0 0.0
0.0 0.0 0.0
0.0 0.0 0.0
0.0 0.0 0.0
0.0 0.0 0.0
0.0 0.0 0.0
0.0 0.0 0.0
0.0 0.0 0.0
0.0 0.0 0.0
0.0 0.0 0.0
0.0 0.0 0.0
0.0 0.0 0.0
0.0 0.0 0.0
0.0 0.0 0.0
0.0 0.0 0.0
1.12072593749 -0.225675408941 0.0
0.996251740343 -0.0014372209009 0.0
0.990509541296 0.00168885369225 0.0
0.993120470389 0.000626087510916 0.0
0.993036302164 -0.00019400042996 0.0
0.992749616052 0.000133317493812 0.0
0.991497173529 -6.80203326485e-05 0.0
0.991441714617 -0.000450433654016 0.0
0.991432934613 -0.000608626699765 0.0
0.991397217681 -0.000256222269376 0.0
0.99156638525 0.00153989502316 0.0
0.990424372325 0.000925961364309 0.0
0.990482493706 -2.89656552487e-05 0.0
0.991383298866 -0.000157293875711 0.0
0.992342116665 -0.000290324604922 0.0
0.992024748042 -0.00297521774257 0.0
1.02003144737 -0.0656429590907 0.0
0.991604087169 0.00370199218514 0.0
0.994730735406 0.00354817133917 0.0
0.982141073925 0.0108744124286 0.0
1.34269507627 -0.177944416502 0.0
1.46802761157 -0.0813954872403 0.0
1.48747487824 0.00271778793225 0.0
1.47824039424 -0.0112042304152 0.0
0.920936664123 -0.00320437865153 0.0
0.906435796174 0.00591329530715 0.0
0.908167187971 0.003223258394 0.0
0.908067476374 0.00303214535378 0.0
0.906935266387 0.00333342540143 0.0
0.90684557565 0.00297126501118 0.0
0.906833983052 0.00277407597796 0.0
0.906972757088 0.00276563652884 0.0
0.905035790864 0.00325140571753 0.0
0.904028235777 0.00341538659118 0.0
0.902533674943 0.00274136686198 0.0
0.902320752117 0.00233758757256 0.0
0.904418685574 0.00246652030297 0.0
0.906757924581 0.00117808052546 0.0
0.914300620165 -0.00106229209755 0.0
0.917616743003 -0.00621847411849 0.0
0.896336853875 0.000558071681718 0.0
0.897126720641 0.000698672439142 0.0
0.897097426238 0.00173706245734 0.0
0.897902863542 0.00123690014216 0.0
0.842845785707 -0.00259157275482 0.0
0.893907654657 0.000561681196123 0.0
0.893897400969 0.00035664755199 0.0
0.893822949496 0.000358658789831 0.0
0.893919297398 0.00158346068026 0.0
0.885037430376 0.00269428316936 0.0
0.890078425648 0.00106830785413 0.0
0.897594588071 -0.000867592564553 0.0
0.891109811702 0.000436258016075 0.0
0.886772113387 -0.000413690589051 0.0
0.862120129106 -0.00204959591832 0.0
0.873159795568 -0.0148802498275 0.0
0.806362023886 -0.127967019747 0.0
0.982349420342 -0.0860610094787 0.0
0.380315451603 -0.154462653104 0.0
0.86017554604 0.00314686092841 0.0
0.87524600813 0.0106629207361 0.0
0.836697473174 -0.00813420492936 0.0
0.842686367485 0.00459226374836 0.0
0.846926847013 -0.000845846436794 0.0
0.786775996892 0.0121676606215 0.0
0.994930174292 -0.100305155411 0.0
0.746042264038 -0.0336184178366 0.0
0.740542947044 -0.0086722986725 0.0
0.740509073163 -0.00751095216562 0.0
0.764086821467 -0.00534739178154 0.0
0.755916214993 -0.00747378497935 0.0
0.7544431756 -0.00634157840199 0.0
0.752539205188 -0.0025991400577 0.0
0.754347656936 -0.00400622150772 0.0
0.754014323859 -0.00422368753601 0.0
0.754170491607 -0.00412482861897 0.0
0.754572197702 -0.00388961879454 0.0
0.757841869824 -0.000291330518053 0.0
0.757049118621 -0.000701745829285 0.0
0.795958319048 -0.0032463061783 0.0
0.758820718744 0.000346945734881 0.0
0.766364268739 0.00452960736586 0.0
0.742380616401 -0.00139497590883 0.0
0.746101805024 -0.00668069884304 0.0
0.803514432498 0.00140685000552 0.0
0.73888007157 0.00546133760483 0.0
0.73915935296 0.0048070279191 0.0
0.738637136029 0.0048812765147 0.0
0.737630833187 0.0048967799481 0.0
0.789471352388 0.00537277542676 0.0
0.737614017386 0.00472341481395 0.0
0.737687109269 0.00462540658797 0.0
0.737786792672 0.00471259260031 0.0
0.730088014528 0.00516326131723 0.0
0.72931792435 0.00502791227081 0.0
0.728570267365 0.0046469913929 0.0
0.728781791366 0.00456812216573 0.0
0.73108086346 0.00449884016806 0.0
0.736197568967 0.0025439337114 0.0
0.778235165935 -0.0229176141117 0.0
0.705263746683 0.0015006782657 0.0
0.699085426184 -0.000753826869738 0.0
1.40635965717 -0.031480055074 0.0
0.417767232755 -0.126000785655 0.0
1.22462092165 -0.0209339216847 0.0
0.734638654832 0.00247073207478 0.0
1.18343884258 0.0102274195965 0.0
1.35825402023 -0.146040592077 0.0
0.693065865246 0.00601680771678 0.0
1.32796976268 -0.0188937334838 0.0
1.02519820192 -0.282169117642 0.0
1.08055694942 -0.056897247616 0.0
1.01172979307 -0.00358470479696 0.0
0.663213364765 -0.0109415271474 0.0
0.654015994368 -0.00807840284174 0.0
0.651659910391 -0.00770731256294 0.0
0.650648600217 -0.00764321791783 0.0
0.651130026849 -0.00741639595804 0.0
0.652333675588 -0.00725770993088 0.0
0.654518616545 -0.00731778471882 0.0
0.655588214927 -0.00755808222137 0.0
0.655429159087 -0.00750164202736 0.0
0.655501240286 -0.00738712381958 0.0
0.655938727751 -0.00726696460292 0.0
0.656747973157 -0.00739986263833 0.0
0.656938377629 -0.0071592143711 0.0
0.640207125676 0.00564008023542 0.0
0.65876808975 0.00160587654339 0.0
0.992658053054 0.00696855648533 0.0
0.989794526902 0.0100024738425 0.0
0.663549878429 -0.0142969453717 0.0
0.667030812413 -0.0129268222695 0.0
0.665757851934 -0.0152220481129 0.0
0.676594143283 -0.0168066305327 0.0
1.15285383596 0.0195714641379 0.0
0.673269231056 -0.0159632229057 0.0
0.680391784056 0.00128139543906 0.0
0.686647853931 0.000440244365184 0.0
0.686634055782 0.000389537922971 0.0
0.686675465071 0.000514373481227 0.0
0.683946842713 -0.00104797336758 0.0
0.688355026131 0.00095044781302 0.0
0.684952144009 -0.00154909573883 0.0
0.684950944223 -0.00171273011885 0.0
1.13995584683 -0.00695714977696 0.0
0.76289641327 -0.0463208042789 0.0
0.996502416501 -0.00159897354095 0.0
0.99653768434 -0.0012231772183 0.0
0.99598115877 -0.00100964370793 0.0
0.995361233826 -0.0017567026694 0.0
0.994658571088 0.000151875257527 0.0
0.995321545325 -0.00203217339854 0.0
0.995297906964 -0.00208000614024 0.0
0.995247654154 -0.00136363394162 0.0
0.993653257164 -0.000780104742692 0.0
0.992736610297 -0.00169942374824 0.0
0.993462083641 -0.0024427938176 0.0
0.994812103034 -0.00242520304942 0.0
0.994641729021 -0.00336301252498 0.0
0.992648773812 -0.0053716026569 0.0
1.0049249173 -0.023904671355 0.0
0.993712891295 -0.00664265323379 0.0
0.993310314678 0.000512616644505 0.0
1.05275620691 -0.167857984027 0.0
0.533619769642 -0.02910958489 0.0
0.996531810511 0.00132026935453 0.0
0.996440808445 0.00132093530308 0.0
0.995401083268 0.00180218370351 0.0
0.996125189454 0.00256231068108 0.0
0.995153184184 0.00123247572293 0.0
0.995136929187 0.00100779072327 0.0
0.995124602234 0.0010968278704 0.0
0.995438691758 0.00131276853971 0.0
0.993957810804 0.00105614387661 0.0
0.993599934885 -9.5190672533e-05 0.0
0.592793367853 -0.0271352331903 0.0
0.9946395678 -0.000543193836978 0.0
0.995676682636 -0.000174044075109 0.0
0.995409894722 -0.00212055762226 0.0
0.991562873145 -0.000297729831561 0.0
1.00048177283 -0.00721390146355 0.0
0.843190531475 -0.0706433419046 0.0
1.18800931367 -0.260006890504 0.0
0.56085103073 -5.28498956993e-05 0.0
0.580355365389 0.00490044890036 0.0
1.19114512697 -0.037308619307 0.0
0.00998228537823 -0.019417082821 0.0
0.544878275415 -0.00648893444825 0.0
0.574463355758 -0.00294371522214 0.0
0.59597933613 0.00723051968723 0.0
0.560423761544 0.010094201316 0.0
1.05697037437 -0.0133977536194 0.0
0.536144114854 -0.000360979407312 0.0
0.560920293561 -0.00273489726028 0.0
0.536904235479 -0.000462602802246 0.0
0.610406057685 -0.00590975545271 0.0
0.615676284078 0.00487336888079 0.0
0.583400500856 -0.00314587505389 0.0
0.617505496357 0.00362348458825 0.0
0.617235403374 0.00357865143624 0.0
0.616247614028 0.00367176192608 0.0
0.61616997813 0.00353137534481 0.0
0.616157972193 0.00345343005357 0.0
0.616398268045 0.00347429567237 0.0
0.611059303802 0.00383563810683 0.0
0.610531113222 0.00380541792555 0.0
0.60942176186 0.0035627728412 0.0
0.609128865559 0.00344274936208 0.0
0.610831458836 0.00344566409399 0.0
0.613942648895 0.00264454127978 0.0
0.575562479194 0.00131402574602 0.0
0.625393431267 -0.0031601558684 0.0
0.537075425078 -0.000424887986454 0.0
0.589941243173 0.002640772686 0.0
0.536606805116 0.00611186392572 0.0
0.537096582603 -0.000320179517343 0.0
0.531061417645 0.00654734992055 0.0
1.18634247144 -0.0089982531091 0.0
0.545282768249 0.00361951465918 0.0
0.54804306824 -0.00781407875527 0.0
0.539031784571 -0.00237322694256 0.0
0.543144468405 0.00275440062754 0.0
0.545160024279 0.00391069911393 0.0
0.550680472828 0.00401581931841 0.0
0.495697431859 -0.00332347675307 0.0
1.07591423046 -0.00524108276732 0.0
1.08999542723 0.0153467877602 0.0
1.01924786236 -0.114081549139 0.0
0.937260317971 0.00537921140017 0.0
0.543221802289 -0.00378927985371 0.0
0.527579155137 0.00200467907786 0.0
1.0401117934 -0.0273880443183 0.0
0.577009849511 0.00285659743191 0.0
0.966203055725 -0.0639835227447 0.0
0.576665309651 -0.00358112419259 0.0
0.99695597387 -0.00617127733909 0.0
0.408386949333 -0.0738707488242 0.0
0.539785439502 0.00318469800787 0.0
0.570866195069 0.00292367911518 0.0
0.569776612875 0.00408968913324 0.0
0.925059659245 6.76600660717e-05 0.0
0.915675118272 0.0031191636373 0.0
0.935099287423 0.00621878098009 0.0
1.09637437817 -0.136107191565 0.0
0.912444812103 0.00284483712476 0.0
0.914691575609 -0.00179658724917 0.0
0.914715186269 -0.00233413674005 0.0
0.913960082509 -0.00205992571237 0.0
0.913274570778 -0.00229737995293 0.0
0.913271527435 -0.00254443868148 0.0
0.913355941436 -0.00264429686853 0.0
0.912964336914 -0.00230170818779 0.0
0.910652242698 -0.0019222837616 0.0
0.909374514755 -0.00241777321443 0.0
0.909059785763 -0.00301940328161 0.0
0.910191998076 -0.00302769851933 0.0
0.912622658014 -0.00353641438929 0.0
0.917120021476 -0.00627686258039 0.0
0.914247800319 -0.00499663390099 0.0
0.917549804485 -0.00288090746773 0.0
0.921866537124 -0.00295999429282 0.0
0.919504495394 -0.00328156027994 0.0
0.918109268658 -0.00223626213413 0.0
0.921920713973 -0.000738605494797 0.0
0.931233833183 -0.00182393485721 0.0
0.933399934973 -0.00126230829257 0.0
0.931240596188 -0.00203307682895 0.0
0.932930995967 -0.00204285736098 0.0
0.931331514597 -0.00186547404565 0.0
0.932934659667 -0.00180038533282 0.0
0.93220730147 -0.00128789877881 0.0
0.13456563228 -0.0666207119466 0.0
0.910268963351 0.000112712398108 0.0
0.919300631563 -0.00911770029441 0.0
0.930809309937 0.00984959666198 0.0
0.886326218197 -0.0792609995123 0.0
0.520559706123 -0.0014912352032 0.0
0.507630423576 0.00607951895997 0.0
0.309992906837 -0.159209857391 0.0
0.894792454119 -0.00607655355876 0.0
0.883564561632 0.00935313992246 0.0
0.904417450447 0.00218096030278 0.0
0.590827780137 -0.000947031088188 0.0
0.697792463154 -0.200560810857 0.0
0.883021362996 0.00432257603299 0.0
0.556867712765 -0.0136161767106 0.0
0.815955712244 -0.194506745329 0.0
1.48549646727 0.00795676311491 0.0
1.03705166131 0.000938596303831 0.0
0.901281525986 0.0101659297524 0.0
0.948476091147 -0.00403934566973 0.0
0.931641631271 0.00468200921333 0.0
0.94329417217 -0.0265917229738 0.0
0.927213474029 -0.00420916735336 0.0
1.46542610632 -0.0139476548737 0.0
0.989981652688 0.000190557194414 0.0
0.932061842773 0.0027896753814 0.0
0.917805934063 -0.00173707143922 0.0
0.917502859366 -0.0017222289027 0.0
0.917107165715 -0.000272368157804 0.0
0.916216756185 -0.00151758403997 0.0
0.916277729772 -0.0018794668201 0.0
0.948585903835 0.0108715617925 0.0
0.91629387332 -0.00205379757782 0.0
0.916395356346 -0.00193840211822 0.0
0.907392995529 -0.000742654143034 0.0
0.906760109362 -0.000864185951972 0.0
0.905797379565 -0.00158427466036 0.0
0.90590513522 -0.00182900748354 0.0
0.90831961587 -0.00178342938232 0.0
0.910915662589 -0.00374220665144 0.0
0.903202862123 -0.00160657539618 0.0
0.885606446666 0.00289311793941 0.0
0.953295929695 -0.0058178612702 0.0
0.952336571938 -0.0444846622164 0.0
0.946897357575 -0.00600126161636 0.0
0.951110259086 -0.00367107731412 0.0
0.955324296574 -0.00354588430696 0.0
0.954048027703 -0.00325617952405 0.0
0.952866842501 -0.00220086189588 0.0
0.952995707961 -0.00109414618073 0.0
0.956607054898 -0.000413315324634 0.0
0.956911578326 -0.00129038894624 0.0
0.956412359718 -0.00198447134889 0.0
0.954476846912 -0.00251782939133 0.0
0.956634072613 -0.00137780667062 0.0
0.954269985923 -0.00296667273556 0.0
0.954560867122 -0.00250216066966 0.0
0.954368641432 -0.00285496652451 0.0
0.423523484131 0.0228669659121 0.0
0.483186524987 -0.00293760829601 0.0
0.412820769553 0.00740076666005 0.0
0.412661818245 0.00723170373838 0.0
0.412244947017 0.007244286944 0.0
0.411692813373 0.00724471778886 0.0
0.411604319702 0.00719407616772 0.0
0.411698012717 0.00716591344836 0.0
0.411636922517 0.00715769260015 0.0
0.408143539783 0.00734477590651 0.0
0.40742241217 0.00728156016773 0.0
0.406966447642 0.00717370657429 0.0
0.407240139723 0.00718371002704 0.0
0.408554258251 0.00716515451423 0.0
0.414194418885 0.00630222832699 0.0
1.41469745235 -0.128473939624 0.0
0.424063670495 0.0151642231745 0.0
0.955139448183 -0.263026408706 0.0
0.419564416237 0.0146083220585 0.0
0.420489796896 0.0145697388238 0.0
0.428012152389 0.0165419844011 0.0
0.428273792621 0.0160641194377 0.0
0.428475889492 0.0159607631041 0.0
0.428716394275 0.0159311505776 0.0
0.428777518525 0.0170587316289 0.0
0.297497781681 -0.0123223812708 0.0
0.451422445207 -0.00987767550442 0.0
0.452945744476 -0.0107739725906 0.0
0.462394294088 -0.00426362837012 0.0
0.423223210309 -0.00803630980948 0.0
0.436032851869 -0.0113092083716 0.0
0.732060349163 -0.0270559050375 0.0
0.548986813674 -0.0399352713341 0.0
0.467307142783 -0.00933431286109 0.0
0.402225724969 -0.00798844621354 0.0
0.386920333336 0.00577384061704 0.0
1.22384997524 -0.151282731573 0.0
0.466057560274 -0.0287941866864 0.0
1.03861601575 -0.0675958519392 0.0
0.486568700096 -0.00795911475865 0.0
0.489847163122 -0.00836927246045 0.0
0.517145198394 -0.0100093644079 0.0
0.527390164853 -0.0219258657271 0.0
0.51912387101 -0.0223868105586 0.0
0.330047092923 -0.0230751276434 0.0
0.522448335804 0.00602352706765 0.0
0.525972172562 0.00729308698733 0.0
0.523308264992 0.00554842420371 0.0
0.521277740185 0.00723774154184 0.0
0.506184374313 -0.00356762923839 0.0
0.52142719438 0.00724700715363 0.0
0.521416545032 0.00729472047153 0.0
0.519178049686 0.00767129217687 0.0
0.524035341932 0.00428304710043 0.0
0.476854784314 0.00808628278279 0.0
1.47181602127 -0.0368373935993 0.0
1.48500057931 -0.000436071574204 0.0
0.538867965446 0.0101081637093 0.0
0.542752229391 0.0066295522619 0.0
0.549535735224 0.00302856621711 0.0
0.542520532993 0.00656315774206 0.0
0.540071096097 0.00580569181246 0.0
0.541697107828 0.00663652616828 0.0
0.53779799046 0.00628982871853 0.0
0.541469650292 0.00653799932355 0.0
0.536582161495 0.00624068974713 0.0
0.541418810656 0.00647282666847 0.0
0.536939093599 0.00638720078167 0.0
0.541641015475 0.00647182004136 0.0
0.538080909568 0.00661151318954 0.0
0.539030276406 0.00668026064784 0.0
1.19347847916 -0.200361770427 0.0
0.931803518378 -0.0105143476548 0.0
0.331119952324 -0.00415000696844 0.0
0.347278540334 0.0048020287095 0.0
0.905377399098 -0.209741515957 0.0
0.509746541157 0.00463584276174 0.0
1.47885731881 -0.00323221707856 0.0
0.838823345259 -0.011182058331 0.0
0.83351473887 -0.0119302089812 0.0
0.842074437766 -0.00924673913804 0.0
0.849793756671 -0.00931929348109 0.0
0.855889214631 -0.00812523239358 0.0
0.852435530842 -0.00768251440822 0.0
0.845777558809 -0.00720603822186 0.0
0.182239130156 -0.0426130116659 0.0
0.847124713792 -0.00864303774747 0.0
0.846561370529 -0.00898531338928 0.0
0.846722655039 -0.00895264081788 0.0
0.846848411246 -0.00877240284235 0.0
0.850237227093 -0.00668457842167 0.0
0.849130964369 -0.00758608044121 0.0
0.856401617177 -0.0088737092801 0.0
0.850595967525 -0.00715815925222 0.0
0.992817624552 0.01153373342 0.0
0.983484977498 0.00211304215472 0.0
0.957445459256 0.0044465914451 0.0
0.955488302624 0.0023528874154 0.0
0.95558768711 0.00149424395852 0.0
0.826489316627 -0.015755702247 0.0
0.571453089622 -0.0274818227518 0.0
0.955093819607 0.00172017927316 0.0
0.953985522843 0.00164453795634 0.0
0.954018281073 0.00131308489158 0.0
0.954058421 0.00116671092983 0.0
0.954000275202 0.00144086556793 0.0
0.948891882721 0.00212061159576 0.0
0.321593426346 0.0173148981498 0.0
0.318768199388 0.0175609147146 0.0
0.317800590256 0.0174895513902 0.0
0.317840717526 0.0175402759257 0.0
0.318398098804 0.0176451887262 0.0
0.318834252693 0.0176693550404 0.0
0.322569424693 0.0179792735045 0.0
0.322413425288 0.0179685921215 0.0
0.322392046589 0.0179882055573 0.0
0.322489571686 0.01801835984 0.0
0.323030177427 0.0180405717661 0.0
0.323268396834 0.0180445314141 0.0
0.323261407459 0.0181150525406 0.0