# vtk DataFile Version 2.0
2D Simulation Python
ASCII
DATASET UNSTRUCTURED_GRID
FIELD FieldData 1
NODES 1 2 int
1869 3447

POINTS 1869 double
0.0 1.0 0.0
0.0 3.0 0.0
40.0 3.0 0.0
40.0 0.0 0.0
4.0 0.0 0.0
4.0 1.0 0.0
0.0 1.285714285716665 0.0
0.0 1.571428571430556 0.0
0.0 1.857142857144446 0.0
0.0 2.142857142858336 0.0
0.0 2.428571428572225 0.0
0.0 2.714285714286111 0.0
0.2985074626863422 3.0 0.0
0.5970149253727002 3.0 0.0
0.8955223880590588 3.0 0.0
1.194029850745382 3.0 0.0
1.492537313431632 3.0 0.0
1.791044776117834 3.0 0.0
2.089552238804087 3.0 0.0
2.388059701490418 3.0 0.0
2.686567164176777 3.0 0.0
2.985074626863136 3.0 0.0
3.283582089549494 3.0 0.0
3.582089552235852 3.0 0.0
3.880597014922211 3.0 0.0
4.179104477608569 3.0 0.0
4.477611940294928 3.0 0.0
4.776119402981237 3.0 0.0
5.074626865667346 3.0 0.0
5.373134328353175 3.0 0.0
5.671641791038871 3.0 0.0
5.970149253724567 3.0 0.0
6.268656716410264 3.0 0.0
6.56716417909596 3.0 0.0
6.865671641781655 3.0 0.0
7.164179104467352 3.0 0.0
7.462686567153049 3.0 0.0
7.761194029838745 3.0 0.0
8.05970149252444 3.0 0.0
8.358208955210136 3.0 0.0
8.656716417895833 3.0 0.0
8.95522388058153 3.0 0.0
9.253731343267225 3.0 0.0
9.552238805952921 3.0 0.0
9.850746268638618 3.0 0.0
10.14925373132431 3.0 0.0
10.44776119401001 3.0 0.0
10.7462686566957 3.0 0.0
11.0447761193814 3.0 0.0
11.34328358206709 3.0 0.0
11.64179104475279 3.0 0.0
11.94029850743848 3.0 0.0
12.23880597012418 3.0 0.0
12.53731343280987 3.0 0.0
12.83582089549557 3.0 0.0
13.13432835818127 3.0 0.0
13.43283582086696 3.0 0.0
13.73134328355265 3.0 0.0
14.02985074623835 3.0 0.0
14.32835820892405 3.0 0.0
14.62686567160974 3.0 0.0
14.92537313429544 3.0 0.0
15.22388059698113 3.0 0.0
15.52238805966683 3.0 0.0
15.82089552235252 3.0 0.0
16.11940298503862 3.0 0.0
16.41791044772535 3.0 0.0
16.71641791041237 3.0 0.0
17.01492537309939 3.0 0.0
17.31343283578641 3.0 0.0
17.61194029847344 3.0 0.0
17.91044776116046 3.0 0.0
18.20895522384748 3.0 0.0
18.5074626865345 3.0 0.0
18.80597014922152 3.0 0.0
19.10447761190854 3.0 0.0
19.40298507459556 3.0 0.0
19.70149253728258 3.0 0.0
19.9999999999696 3.0 0.0
20.29850746265662 3.0 0.0
20.59701492534364 3.0 0.0
20.89552238803066 3.0 0.0
21.19402985071768 3.0 0.0
21.49253731340471 3.0 0.0
21.79104477609173 3.0 0.0
22.08955223877875 3.0 0.0
22.38805970146577 3.0 0.0
22.68656716415279 3.0 0.0
22.98507462683981 3.0 0.0
23.28358208952683 3.0 0.0
23.58208955221385 3.0 0.0
23.88059701490088 3.0 0.0
24.1791044775879 3.0 0.0
24.47761194027491 3.0 0.0
24.77611940296193 3.0 0.0
25.07462686564896 3.0 0.0
25.37313432833598 3.0 0.0
25.671641791023 3.0 0.0
25.97014925371002 3.0 0.0
26.26865671639704 3.0 0.0
26.56716417908406 3.0 0.0
26.86567164177108 3.0 0.0
27.1641791044581 3.0 0.0
27.46268656714512 3.0 0.0
27.76119402983214 3.0 0.0
28.05970149251916 3.0 0.0
28.35820895520619 3.0 0.0
28.65671641789321 3.0 0.0
28.95522388058023 3.0 0.0
29.25373134326725 3.0 0.0
29.55223880595426 3.0 0.0
29.85074626864129 3.0 0.0
30.14925373132831 3.0 0.0
30.44776119401533 3.0 0.0
30.74626865670236 3.0 0.0
31.04477611938937 3.0 0.0
31.34328358207639 3.0 0.0
31.64179104476341 3.0 0.0
31.94029850745043 3.0 0.0
32.23880597013746 3.0 0.0
32.53731343282448 3.0 0.0
32.8358208955115 3.0 0.0
33.13432835819852 3.0 0.0
33.43283582088554 3.0 0.0
33.73134328357256 3.0 0.0
34.02985074625958 3.0 0.0
34.3283582089466 3.0 0.0
34.62686567163362 3.0 0.0
34.92537313432064 3.0 0.0
35.22388059700766 3.0 0.0
35.52238805969468 3.0 0.0
35.8208955223817 3.0 0.0
36.11940298506872 3.0 0.0
36.41791044775574 3.0 0.0
36.71641791044276 3.0 0.0
37.01492537312978 3.0 0.0
37.31343283581681 3.0 0.0
37.61194029850382 3.0 0.0
37.91044776119085 3.0 0.0
38.20895522387787 3.0 0.0
38.5074626865649 3.0 0.0
38.80597014925192 3.0 0.0
39.10447761193894 3.0 0.0
39.40298507462596 3.0 0.0
39.70149253731298 3.0 0.0
40.0 2.700000000001935 0.0
40.0 2.400000000003002 0.0
40.0 2.100000000002161 0.0
40.0 1.800000000002828 0.0
40.0 1.500000000004164 0.0
40.0 1.200000000003365 0.0
40.0 0.9000000000025241 0.0
40.0 0.6000000000016827 0.0
40.0 0.3000000000008414 0.0
39.70000000000115 0.0 0.0
39.40000000000229 0.0 0.0
39.10000000000343 0.0 0.0
38.80000000000458 0.0 0.0
38.50000000000572 0.0 0.0
38.20000000000687 0.0 0.0
37.90000000000801 0.0 0.0
37.60000000000915 0.0 0.0
37.3000000000103 0.0 0.0
37.00000000001144 0.0 0.0
36.70000000001259 0.0 0.0
36.40000000001373 0.0 0.0
36.10000000001487 0.0 0.0
35.80000000001602 0.0 0.0
35.50000000001717 0.0 0.0
35.20000000001831 0.0 0.0
34.90000000001945 0.0 0.0
34.6000000000206 0.0 0.0
34.30000000002174 0.0 0.0
34.00000000002289 0.0 0.0
33.70000000002403 0.0 0.0
33.40000000002517 0.0 0.0
33.10000000002632 0.0 0.0
32.80000000002747 0.0 0.0
32.50000000002861 0.0 0.0
32.20000000002975 0.0 0.0
31.9000000000309 0.0 0.0
31.60000000003204 0.0 0.0
31.30000000003319 0.0 0.0
31.00000000003433 0.0 0.0
30.70000000003548 0.0 0.0
30.40000000003662 0.0 0.0
30.10000000003777 0.0 0.0
29.80000000003891 0.0 0.0
29.50000000004005 0.0 0.0
29.2000000000412 0.0 0.0
28.90000000004234 0.0 0.0
28.60000000004348 0.0 0.0
28.30000000004463 0.0 0.0
28.00000000004577 0.0 0.0
27.70000000004692 0.0 0.0
27.40000000004806 0.0 0.0
27.1000000000492 0.0 0.0
26.80000000005035 0.0 0.0
26.50000000005149 0.0 0.0
26.20000000005263 0.0 0.0
25.90000000005378 0.0 0.0
25.60000000005492 0.0 0.0
25.30000000005606 0.0 0.0
25.00000000005721 0.0 0.0
24.70000000005835 0.0 0.0
24.40000000005949 0.0 0.0
24.10000000006064 0.0 0.0
23.80000000006178 0.0 0.0
23.50000000006293 0.0 0.0
23.20000000006407 0.0 0.0
22.90000000006521 0.0 0.0
22.60000000006636 0.0 0.0
22.3000000000675 0.0 0.0
22.00000000006795 0.0 0.0
21.70000000006683 0.0 0.0
21.40000000006501 0.0 0.0
21.1000000000632 0.0 0.0
20.80000000006138 0.0 0.0
20.50000000005956 0.0 0.0
20.20000000005775 0.0 0.0
19.90000000005593 0.0 0.0
19.60000000005412 0.0 0.0
19.3000000000523 0.0 0.0
19.00000000005049 0.0 0.0
18.70000000004867 0.0 0.0
18.40000000004686 0.0 0.0
18.10000000004504 0.0 0.0
17.80000000004323 0.0 0.0
17.50000000004141 0.0 0.0
17.2000000000396 0.0 0.0
16.90000000003779 0.0 0.0
16.60000000003597 0.0 0.0
16.30000000003416 0.0 0.0
16.00000000003234 0.0 0.0
15.70000000003053 0.0 0.0
15.40000000002871 0.0 0.0
15.1000000000269 0.0 0.0
14.80000000002508 0.0 0.0
14.50000000002327 0.0 0.0
14.20000000002145 0.0 0.0
13.90000000001964 0.0 0.0
13.60000000001783 0.0 0.0
13.30000000001601 0.0 0.0
13.0000000000142 0.0 0.0
12.70000000001238 0.0 0.0
12.40000000001056 0.0 0.0
12.10000000000875 0.0 0.0
11.80000000000694 0.0 0.0
11.50000000000512 0.0 0.0
11.20000000000331 0.0 0.0
10.90000000000149 0.0 0.0
10.59999999999968 0.0 0.0
10.29999999999787 0.0 0.0
9.99999999999605 0.0 0.0
9.699999999994237 0.0 0.0
9.399999999992424 0.0 0.0
9.099999999990604 0.0 0.0
8.799999999988792 0.0 0.0
8.499999999986976 0.0 0.0
8.199999999985256 0.0 0.0
7.899999999985106 0.0 0.0
7.599999999986252 0.0 0.0
7.299999999987392 0.0 0.0
6.999999999988546 0.0 0.0
6.699999999989686 0.0 0.0
6.399999999990833 0.0 0.0
6.099999999991979 0.0 0.0
5.799999999993126 0.0 0.0
5.499999999994273 0.0 0.0
5.199999999995413 0.0 0.0
4.899999999996567 0.0 0.0
4.599999999997706 0.0 0.0
4.299999999998853 0.0 0.0
4.0 0.2499999999994109 0.0
4.0 0.4999999999986918 0.0
4.0 0.7499999999993401 0.0
3.714285714284526 1.0 0.0
3.428571428569844 1.0 0.0
3.142857142857542 1.0 0.0
2.85714285714524 1.0 0.0
2.571428571432937 1.0 0.0
2.285714285720635 1.0 0.0
2.000000000008246 1.0 0.0
1.714285714292858 1.0 0.0
1.428571428577383 1.0 0.0
1.142857142861906 1.0 0.0
0.8571428571464295 1.0 0.0
0.5714285714309533 1.0 0.0
0.2857142857154762 1.0 0.0
5.440895737063815 1.5321810752057226 0.0
38.359631109480205 1.5447862624578594 0.0
36.55156595862513 1.5678345293898692 0.0
34.78710000302187 1.5642234316343742 0.0
32.9971954225337 1.5616773154845147 0.0
31.206213093159832 1.5616241273381726 0.0
29.41743466562333 1.560813469344192 0.0
27.626772764562254 1.5595442904607533 0.0
25.8345099987122 1.5596010883176028 0.0
24.038234267385175 1.5598722611419031 0.0
22.28410800461182 1.5615988969890857 0.0
20.49887470353422 1.5590348043573192 0.0
18.706375623998746 1.5616894963191854 0.0
16.914750360834766 1.563910776410858 0.0
15.128618847375977 1.5556246456016476 0.0
13.33374344126039 1.5511890511266595 0.0
7.030759682398678 1.534442092687481 0.0
11.566049076409328 1.4969212260342677 0.0
8.761848711004971 1.5139156602083867 0.0
10.122611928795317 1.6236584616968261 0.0
4.526369532015368 1.9188661001514808 0.0
3.5185905812745153 2.0252610404151303 0.0
0.8929602934338949 2.0484837616277805 0.0
2.1303862954741786 2.0128365285831764 0.0
37.45664389250272 1.9215745158530688 0.0
35.76980667423149 1.9566969156967804 0.0
33.97560565425424 1.951129826056218 0.0
32.18468257484926 1.9502423738014634 0.0
30.393953542480887 1.9506962134922115 0.0
28.603869422410817 1.9490708688174188 0.0
26.81243432007293 1.9489436858605451 0.0
25.020320832831715 1.9489079511655873 0.0
23.222921081222125 1.9532226644536412 0.0
21.438577064798203 1.9510574224417399 0.0
19.648320628121976 1.9527003755547225 0.0
17.85646983812719 1.9551347438424853 0.0
16.066386904528457 1.9524591667910451 0.0
14.276194644033797 1.949504085905422 0.0
12.469240233774332 1.9331189870611798 0.0
7.903765740008337 1.9170293474259146 0.0
32.11693620250729 1.0153772846462719 0.0
33.9052719667752 1.018314117442152 0.0
30.327339895719167 1.0165516066818012 0.0
35.685997274784626 1.0240920134690144 0.0
37.47826336526687 0.9143900830224962 0.0
28.544382306259507 1.008832531079308 0.0
26.750770900913658 1.008697819364698 0.0
24.956031422002802 1.0087920104531238 0.0
23.15163741793711 1.0082816543559 0.0
21.376334792735403 0.9954454147104485 0.0
19.585082890394872 1.0071215101888775 0.0
17.79121251690518 1.0187009575384915 0.0
16.01281168302144 1.0009471538479193 0.0
14.223190832776599 0.9947506625384457 0.0
12.435116110262122 0.9533072381305729 0.0
7.904118015944833 0.9516540425309552 0.0
6.260075186818547 0.9882083828748837 0.0
6.226199612153765 2.037271304307933 0.0
4.831970914683074 0.828771924662698 0.0
[...]
POINT_DATA 1869
VECTORS vector double
0.0 0.0 0.0
0.0 0.0 0.0
0.0 0.0 0.0
0.0 0.0 0.0
0.0 0.0 0.0
0.0 0.0 0.0
0.734693877556 0.0 0.0
1.22448979592 0.0 0.0
1.4693877551 0.0 0.0
1.4693877551 0.0 0.0
1.22448979592 0.0 0.0
0.73469387755 0.0 0.0
0.0 0.0 0.0
0.0 0.0 0.0
0.0 0.0 0.0
0.0 0.0 0.0
0.0 0.0 0.0
0.0 0.0 0.0
0.0 0.0 0.0
0.0 0.0 0.0
0.0 0.0 0.0
0.0 0.0 0.0
0.0 0.0 0.0
0.0 0.0 0.0
0.0 0.0 0.0
0.0 0.0 0.0
0.0 0.0 0.0
0.0 0.0 0.0
0.0 0.0 0.0
0.0 0.0 0.0
0.0 0.0 0.0
0.0 0.0 0.0
0.0 0.0 0.0
0.0 0.0 0.0
0.0 0.0 0.0
0.0 0.0 0.0
0.0 0.0 0.0
0.0 0.0 0.0
0.0 0.0 0.0
0.0 0.0 0.0
0.0 0.0 0.0
0.0 0.0 0.0
0.0 0.0 0.0
0.0 0.0 0.0
0.0 0.0 0.0
0.0 0.0 0.0
0.0 0.0 0.0
0.0 0.0 0.0
0.0 0.0 0.0
0.0 0.0 0.0
0.0 0.0 0.0
0.0 0.0 0.0
0.0 0.0 0.0
0.0 0.0 0.0
0.0 0.0 0.0
0.0 0.0 0.0
0.0 0.0 0.0
0.0 0.0 0.0
0.0 0.0 0.0
0.0 0.0 0.0
0.0 0.0 0.0
0.0 0.0 0.0
0.0 0.0 0.0
0.0 0.0 0.0
0.0 0.0 0.0
0.0 0.0 0.0
0.0 0.0 0.0
0.0 0.0 0.0
0.0 0.0 0.0
0.0 0.0 0.0
0.0 0.0 0.0
0.0 0.0 0.0
0.0 0.0 0.0
0.0 0.0 0.0
0.0 0.0 0.0
0.0 0.0 0.0
0.0 0.0 0.0
0.0 0.0 0.0
0.0 0.0 0.0
0.0 0.0 0.0
0.0 0.0 0.0
0.0 0.0 0.0
0.0 0.0 0.0
0.0 0.0 0.0
0.0 0.0 0.0
0.0 0.0 0.0
0.0 0.0 0.0
0.0 0.0 0.0
0.0 0.0 0.0
0.0 0.0 0.0
0.0 0.0 0.0
0.0 0.0 0.0
0.0 0.0 0.0
0.0 0.0 0.0
0.0 0.0 0.0
0.0 0.0 0.0
0.0 0.0 0.0
0.0 0.0 0.0
0.0 0.0 0.0
0.0 0.0 0.0
0.0 0.0 0.0
0.0 0.0 0.0
0.0 0.0 0.0
0.0 0.0 0.0
0.0 0.0 0.0
0.0 0.0 0.0
0.0 0.0 0.0
0.0 0.0 0.0
0.0 0.0 0.0
0.0 0.0 0.0
0.0 0.0 0.0
0.0 0.0 0.0
0.0 0.0 0.0
0.0 0.0 0.0
0.0 0.0 0.0
0.0 0.0 0.0
0.0 0.0 0.0
0.0 0.0 0.0
0.0 0.0 0.0
0.0 0.0 0.0
0.0 0.0 0.0
0.0 0.0 0.0
0.0 0.0 0.0
0.0 0.0 0.0
0.0 0.0 0.0
0.0 0.0 0.0
0.0 0.0 0.0
0.0 0.0 0.0
0.0 0.0 0.0
0.0 0.0 0.0
0.0 0.0 0.0
0.0 0.0 0.0
0.0 0.0 0.0
0.0 0.0 0.0
0.0 0.0 0.0
0.0 0.0 0.0
0.0 0.0 0.0
0.0 0.0 0.0
0.0 0.0 0.0
0.0 0.0 0.0
0.0 0.0 0.0
0.0 0.0 0.0
0.0 0.0 0.0
0.0 0.0 0.0
0.0 0.0 0.0
0.635686047283 0.0241057605749 0.0
0.751963493341 -0.00792623656198 0.0
0.73777187504 -0.00105126898597 0.0
0.733081487683 0.000298075710537 0.0
0.732565439718 -1.19361832456e-05 0.0
0.733510947088 -0.000290796560783 0.0
0.740134569704 0.00130662210019 0.0
0.755021876266 0.00683299391179 0.0
0.631998943442 -0.0235868894078 0.0
0.0 0.0 0.0
0.0 0.0 0.0
0.0 0.0 0.0
0.0 0.0 0.0
0.0 0.0 0.0
0.0 0.0 0.0
0.0 0.0 0.0
0.0 0.0 0.0
0.0 0.0 0.0
0.0 0.0 0.0
0.0 0.0 0.0
0.0 0.0 0.0
0.0 0.0 0.0
0.0 0.0 0.0
0.0 0.0 0.0
0.0 0.0 0.0
0.0 0.0 0.0
0.0 0.0 0.0
0.0 0.0 0.0
0.0 0.0 0.0
0.0 0.0 0.0
0.0 0.0 0.0
0.0 0.0 0.0
0.0 0.0 0.0
0.0 0.0 0.0
0.0 0.0 0.0
0.0 0.0 0.0
0.0 0.0 0.0
0.0 0.0 0.0
0.0 0.0 0.0
0.0 0.0 0.0
0.0 0.0 0.0
0.0 0.0 0.0
0.0 0.0 0.0
0.0 0.0 0.0
0.0 0.0 0.0
0.0 0.0 0.0
0.0 0.0 0.0
0.0 0.0 0.0
0.0 0.0 0.0
0.0 0.0 0.0
0.0 0.0 0.0
0.0 0.0 0.0
0.0 0.0 0.0
0.0 0.0 0.0
0.0 0.0 0.0
0.0 0.0 0.0
0.0 0.0 0.0
0.0 0.0 0.0
0.0 0.0 0.0
0.0 0.0 0.0
0.0 0.0 0.0
0.0 0.0 0.0
0.0 0.0 0.0
0.0 0.0 0.0
0.0 0.0 0.0
0.0 0.0 0.0
0.0 0.0 0.0
0.0 0.0 0.0
0.0 0.0 0.0
0.0 0.0 0.0
0.0 0.0 0.0
0.0 0.0 0.0
0.0 0.0 0.0
0.0 0.0 0.0
0.0 0.0 0.0
0.0 0.0 0.0
0.0 0.0 0.0
0.0 0.0 0.0
0.0 0.0 0.0
0.0 0.0 0.0
0.0 0.0 0.0
0.0 0.0 0.0
0.0 0.0 0.0
0.0 0.0 0.0
0.0 0.0 0.0
0.0 0.0 0.0
0.0 0.0 0.0
0.0 0.0 0.0
0.0 0.0 0.0
0.0 0.0 0.0
0.0 0.0 0.0
0.0 0.0 0.0
0.0 0.0 0.0
0.0 0.0 0.0
0.0 0.0 0.0
0.0 0.0 0.0
0.0 0.0 0.0
0.0 0.0 0.0
0.0 0.0 0.0
0.0 0.0 0.0
0.0 0.0 0.0
0.0 0.0 0.0
0.0 0.0 0.0
0.0 0.0 0.0
0.0 0.0 0.0
0.0 0.0 0.0
0.0 0.0 0.0
0.0 0.0 0.0
0.0 0.0 0.0
0.0 0.0 0.0
0.0 0.0 0.0
0.0 0.0 0.0
0.0 0.0 0.0
0.0 0.0 0.0
0.0 0.0 0.0
0.0 0.0 0.0
0.0 0.0 0.0
0.0 0.0 0.0
0.0 0.0 0.0
0.0 0.0 0.0
0.0 0.0 0.0
0.0 0.0 0.0
0.0 0.0 0.0
0.0 0.0 0.0
0.0 0.0 0.0
0.0 0.0 0.0
0.0 0.0 0.0
0.0 0.0 0.0
0.0 0.0 0.0
0.0 0.0 0.0
0.0 0.0 0.0
0.0 0.0 0.0
0.0 0.0 0.0
0.0 0.0 0.0
0.0 0.0 0.0
0.0 0.0 0.0
0.0 0.0 0.0
0.0 0.0 0.0
0.0 0.0 0.0
0.0 0.0 0.0
0.0 0.0 0.0
0.0 0.0 0.0
0.0 0.0 0.0
0.0 0.0 0.0
0.758553860174 -0.126107553153 0.0
0.732716164136 -0.00297545928978 0.0
0.729324782465 0.000174142844062 0.0
0.731291228278 0.0010663392699 0.0
0.73055250238 0.00028671830551 0.0
0.730431659051 0.000279356939758 0.0
0.729017382463 0.000367346620626 0.0
0.72892671733 -2.92469372281e-05 0.0
0.728954435889 -7.94080202212e-05 0.0
0.7289932281 -2.30051584619e-05 0.0
0.728599728785 0.0005114035045 0.0
0.727815898483 -0.000156863680232 0.0
0.728040063622 -0.000423782880443 0.0
0.728436023949 -0.000148038036598 0.0
0.728198027097 -0.00026526085349 0.0
0.728924748251 -0.00146605653464 0.0
0.730812122417 -0.0185111022047 0.0
0.725857406117 -0.00131967163626 0.0
0.726450567709 -0.000579360828725 0.0
0.724029050165 0.00030800080946 0.0
0.942326062945 -0.169017794501 0.0
1.12552289376 -0.0699164080273 0.0
1.22085516538 0.0137668366618 0.0
1.14844210289 -0.0106322187575 0.0
0.72881546025 -0.00424361435419 0.0
0.725908836775 0.00307720571826 0.0
0.726823609667 0.000421823851902 0.0
0.726245067727 -4.46491763965e-05 0.0
0.725688951055 0.00022090211589 0.0
0.724985044667 -0.00015396262789 0.0
0.72493052258 -0.000283033922117 0.0
0.724943766216 -0.000280940583842 0.0
0.724850300536 -6.14743080626e-05 0.0
0.724147927795 -1.42351501106e-05 0.0
0.724126653747 -0.000348881974993 0.0
0.724518448749 -0.00040433036329 0.0
0.724518649841 -0.000313491945448 0.0
0.724695740634 -0.000727260314308 0.0
0.725656983069 -0.00267907334067 0.0
0.731564654706 -0.00242179218575 0.0
0.726948776629 0.000750899971271 0.0
0.726761231982 0.00185024398558 0.0
0.726983583702 0.00196406230089 0.0
0.725289211265 0.00170830462332 0.0
0.732454563263 -0.00170367192212 0.0
0.726397104605 0.000405287749198 0.0
0.726508674705 0.000253018820779 0.0
0.726585628258 0.000225014543459 0.0
0.726867502182 0.000470037478865 0.0
0.725180660128 0.000931816619779 0.0
0.726385714782 0.000571975226595 0.0
0.727709594912 0.000412214563396 0.0
0.726857293634 0.000707763846848 0.0
0.726388408233 -9.56721063826e-05 0.0
0.727908988687 0.000861235600682 0.0
0.724172787463 -0.00439858483239 0.0
0.699916747977 -0.043780050844 0.0
0.757917312765 -0.0366755758619 0.0
0.551316289727 -0.269506835723 0.0
0.723540950605 0.00045611969421 0.0
0.722940402475 0.000433675840741 0.0
0.732242089623 0.000358216233434 0.0
0.729115537725 0.00211817258741 0.0
0.722870467896 -0.00249583190022 0.0
0.725452563515 0.00216726464304 0.0
0.837512605415 -0.0713472121307 0.0
0.7188329188 -0.00904157192051 0.0
0.73054058234 -0.0078521212122 0.0
0.729998805883 -0.00216422342625 0.0
0.728741629548 -0.000553187906423 0.0
0.730329998265 -0.00472569708952 0.0
0.73057814352 -0.00403860416926 0.0
0.73023693157 0.0028753101885 0.0
0.729826514942 0.000962997578732 0.0
0.729791932291 0.00102788738775 0.0
0.729748293056 0.0010321527645 0.0
0.729492965476 0.00136728610919 0.0
0.735597614622 0.0036584447064 0.0
0.735009209337 0.00351836585363 0.0
0.735751193535 0.00834382726884 0.0
0.736976605369 0.00561275544959 0.0
0.725720883554 -0.00607265102903 0.0
0.726906266919 0.000544952180483 0.0
0.741353209398 -0.0101884895445 0.0
0.726056260625 -0.00156540316314 0.0
0.741083593883 0.00588132223015 0.0
0.739849022572 0.00485761476383 0.0
0.739368865391 0.00479456114757 0.0
0.738518897012 0.00484629268124 0.0
0.729594462238 -0.00630084074996 0.0
0.738187722987 0.0046480801603 0.0
0.738178267163 0.0046030934318 0.0
0.738189737668 0.00458513540199 0.0
0.738358501109 0.00488741930116 0.0
0.73775858782 0.00475893711094 0.0
0.737953810756 0.00462712479154 0.0
0.738277311857 0.00463730680241 0.0
0.738192181197 0.00461063302335 0.0
0.739050934299 0.00413924253911 0.0
0.74959063286 -0.00815262239836 0.0
0.730279407456 -0.001531434017 0.0
0.73253937423 0.00250082971591 0.0
1.15791138684 -0.021610415264 0.0
0.640201992768 -0.0824588787328 0.0
1.16625085177 -0.0273503311054 0.0
0.726095729304 0.000418719562058 0.0
1.15386991618 0.0162235489701 0.0
1.16512138104 -0.183741675169 0.0
0.729354131296 -0.00074097017723 0.0
1.13881905159 -0.0195839758675 0.0
0.891161733664 -0.406503717191 0.0
1.05797579553 -0.0468447729639 0.0
0.733177972937 -0.000103966682161 0.0
0.741773889969 -0.00669282741708 0.0
0.740198855385 -0.00598795073089 0.0
0.740009243662 -0.00584500601599 0.0
0.739884400403 -0.00584976691316 0.0
0.73963599774 -0.00579155451086 0.0
0.739847193863 -0.0056235524637 0.0
0.740268918759 -0.00568559955776 0.0
0.74041016117 -0.00572530144512 0.0
0.740430581205 -0.00570493639984 0.0
0.740603402306 -0.00557674086441 0.0
0.741373605687 -0.00547546283272 0.0
0.741914787801 -0.00553913700269 0.0
0.742899955632 -0.00507827469558 0.0
0.733007166041 0.000488394539705 0.0
0.746555905569 -0.00233822236439 0.0
0.724381858193 -0.000561521238067 0.0
0.724826569506 0.000793555216349 0.0
0.733928460127 -0.00339121810195 0.0
0.736228182625 -0.00154914632739 0.0
0.733803443799 -0.000995913916532 0.0
0.732683829816 -0.00284666801131 0.0
1.16061008652 -0.0607289194954 0.0
0.733555628067 -0.00342699238122 0.0
0.741387056516 0.00189450884432 0.0
0.740428396916 0.00102286612758 0.0
0.74043690489 0.000908336054728 0.0
0.740360402418 0.000930738255974 0.0
0.743124574771 -0.00406453067628 0.0
0.740105847566 0.00187140925519 0.0
0.741040435967 -0.00252990893868 0.0
0.740535467069 -0.00227433269386 0.0
1.15864356081 0.0815500097701 0.0
0.809277744907 -0.0312297099424 0.0
0.72907533235 0.000179424738708 0.0
0.729584803048 0.00096178410763 0.0
0.728836172692 0.000613766265429 0.0
0.727767449556 -4.85859721773e-05 0.0
0.727999485518 0.00188567991586 0.0
0.727788517472 -0.000262553738443 0.0
0.727817564307 -0.000280419920152 0.0
0.72784903349 -8.65806849951e-05 0.0
0.727009089548 0.000303553651781 0.0
0.727066221393 -0.000370178492426 0.0
0.727544609928 -0.000597839159491 0.0
0.727492422211 -0.000284960181817 0.0
0.727363649267 -0.000763801159021 0.0
0.728368819556 -0.00174889054271 0.0
0.72913872077 -0.00732575282125 0.0
0.731672651026 -0.0034992038362 0.0
0.730860035464 -0.00213782994322 0.0
0.731492384136 -0.0675286607374 0.0
0.706919554956 -0.0100735181272 0.0
0.729160086156 0.00110886763869 0.0
0.728956838584 0.000636177709396 0.0
0.728184954107 0.00123666199053 0.0
0.728898075442 0.00202693521469 0.0
0.727724212188 0.000552561324521 0.0
0.727755748268 0.000440996855604 0.0
0.727796637922 0.000452750351408 0.0
0.727826914914 0.000809191422715 0.0
0.726721205185 0.000697961305797 0.0
0.726959821337 0.000387243062697 0.0
0.758347670096 -0.0122852235476 0.0
0.727570283661 0.000438842415442 0.0
0.727346684836 0.000532621107756 0.0
0.727490588341 -0.000309715558977 0.0
0.726944067894 -0.00102414332655 0.0
0.728229786058 -0.00305849859661 0.0
0.91511476056 -0.0624487079788 0.0
0.821221461186 -0.224172472792 0.0
0.736720064848 0.000507621815827 0.0
0.72624720482 0.00461026297651 0.0
1.19161565953 -0.0319777049303 0.0
0.220712371557 -0.228670129277 0.0
0.736955418455 -2.32349597134e-05 0.0
0.726955591594 -0.00726550767417 0.0
0.723416016257 0.00812575477209 0.0
0.728710507116 0.00365214168968 0.0
1.12313700609 -0.0134374239061 0.0
0.726491405574 0.00382945827254 0.0
0.727994134365 0.00880608512916 0.0
0.726420609956 0.00383859605354 0.0
0.72871772737 -0.00533117497831 0.0
0.731992754943 0.0114059357731 0.0
0.736671103682 0.00235633991735 0.0
0.730470700244 0.00887500463625 0.0
0.729829273018 0.0086928525837 0.0
0.7291335708 0.0087938086404 0.0
0.728604847115 0.00863705170569 0.0
0.728537521206 0.00859211507483 0.0
0.728551575249 0.00860771017088 0.0
0.728404840037 0.00875810227308 0.0
0.727826065629 0.00865841502598 0.0
0.727817092629 0.00851908806602 0.0
0.728127767907 0.00850446971207 0.0
0.728169949561 0.00853544884672 0.0
0.728624390543 0.00840409860593 0.0
0.737006637624 0.00533120716773 0.0
0.732653164109 0.00190580855601 0.0
0.726347957399 0.00401593892763 0.0
0.74082758016 0.00385526462078 0.0
0.729213082103 0.010856286595 0.0
0.726325656582 0.00427916454283 0.0
0.72973406776 0.0103731660779 0.0
1.16543159395 -0.0167201488989 0.0
0.725553894721 0.00831460864094 0.0
0.734458181976 -0.00712552683286 0.0
0.712356241184 0.00112777095074 0.0
0.723919349684 0.00737617778003 0.0
0.72139129229 0.0109245421362 0.0
0.717086450654 0.0122041281673 0.0
0.711488946475 -0.00263956815148 0.0
1.12651570878 -0.0323535946818 0.0
1.12499712525 0.0463270383126 0.0
0.726879118321 -0.0355312474254 0.0
0.723978139887 -0.000326380791088 0.0
0.719377371616 -0.00900883788401 0.0
0.718597456087 0.010330510358 0.0
1.08841361013 -0.0174855551459 0.0
0.719108789019 0.000941538258702 0.0
0.743620706193 -0.0242845945393 0.0
0.735150355569 0.00725801016043 0.0
0.733156819103 -0.00120171860192 0.0
0.661389008048 -0.0389215438682 0.0
0.725478095891 0.00238990647306 0.0
0.727216754344 -0.00250638172017 0.0
0.723979758013 0.00321853962546 0.0
0.730167823925 -0.00200420828559 0.0
0.724714897441 -0.0011658147968 0.0
0.723492321381 -0.000450847249619 0.0
0.77319419138 -0.0668802829037 0.0
0.727028272569 0.000178010544966 0.0
0.731654431482 -0.000791552929733 0.0
0.730864279291 -0.00150047197277 0.0
0.730499379345 -0.00140523098834 0.0
0.72950611403 -0.00154259219832 0.0
0.729373888058 -0.00177608289692 0.0
0.729378744404 -0.00180935511169 0.0
0.729331463129 -0.00172733091115 0.0
0.728845760738 -0.00144054623383 0.0
0.728522974528 -0.00183311905446 0.0
0.728804191823 -0.00200362700194 0.0
0.728977412631 -0.00187093453715 0.0
0.728966730403 -0.00205050773473 0.0
0.730060783441 -0.00308517354033 0.0
0.726828971105 -0.00186887313689 0.0
0.726864621966 -3.39147157813e-05 0.0
0.727436697248 -0.000234122285598 0.0
0.726401527331 -0.000679611446549 0.0
0.726274838921 -0.000544494958446 0.0
0.728778425146 0.000542240229951 0.0
0.728675951535 -0.000188190213546 0.0
0.730777863701 -0.000503803496964 0.0
0.728608343216 -0.000218557593197 0.0
0.730006524067 -0.00045515464164 0.0
0.728536841384 -0.00016430728212 0.0
0.730208496613 -0.00068425643679 0.0
0.728504966535 0.000559571058234 0.0
0.509267780247 -0.103795578558 0.0
0.732534469139 -0.000651638949063 0.0
0.733071040628 -1.79912915439e-06 0.0
0.732945497209 0.000622645956945 0.0
0.716708658178 -0.0193589308617 0.0
0.713232657217 -0.00855774791594 0.0
0.70968168196 0.0116825797059 0.0
0.48056931282 -0.518433517448 0.0
0.734271328705 -0.00237119403502 0.0
0.72614563183 0.00137250027526 0.0
0.724927162924 -0.00241318203418 0.0
0.727224643165 -0.00908376066495 0.0
0.663526365299 -0.15912793782 0.0
0.72193167395 0.00117566479941 0.0
0.750565163021 -0.00960139562385 0.0
0.690388279178 -0.0954313886576 0.0
1.35276378271 -0.00584796845443 0.0
1.11737821036 -0.00911591909845 0.0
0.722162004549 -0.000736436450644 0.0
0.725544813624 -0.00276698677802 0.0
0.725507328697 -0.000494886324272 0.0
0.735904748976 -0.00741299770296 0.0
0.73128191559 -0.00499974257809 0.0
1.14542570983 -0.0169593972251 0.0
1.09506144748 -0.0148804545589 0.0
0.728473146432 -0.0019047188235 0.0
0.729223618125 0.00277300688055 0.0
0.728825351113 0.002495203425 0.0
0.729685304855 0.00427528411589 0.0
0.727976813406 0.00278116055893 0.0
0.727564837017 0.00237929486044 0.0
0.724162036624 0.000333883198721 0.0
0.727557324651 0.00229844485649 0.0
0.727585587185 0.00231435356183 0.0
0.727372703612 0.00269654890182 0.0
0.726598503384 0.00254549275099 0.0
0.72673017288 0.00230999242778 0.0
0.727146370384 0.00235224231634 0.0
0.727047279364 0.00236701945818 0.0
0.727557346736 0.00176871039506 0.0
0.726094587593 -0.00101944614343 0.0
0.728657408552 -0.000315342441275 0.0
0.731738405866 -0.00337936001631 0.0
0.724487203556 -0.0117538669607 0.0
0.72914973012 -0.00229564778516 0.0
0.727846658841 -0.000583890737491 0.0
0.728183644898 -0.000143027978084 0.0
0.728142921566 -0.000986991634675 0.0
0.727887316131 -0.000526239026304 0.0
0.727893301967 0.00115640398639 0.0
0.729752553059 0.0030227951708 0.0
0.731206879096 0.00200742755038 0.0
0.730319392094 0.000958829672726 0.0
0.728493467961 0.000303685440612 0.0
0.730456050251 0.0012245258884 0.0
0.728394712798 0.000215419799184 0.0
0.728255556976 0.000584676642848 0.0
0.728359639464 0.000245366678315 0.0
0.690542242612 0.0175254443685 0.0
0.691225058004 -0.00623471218441 0.0
0.689094419412 0.00418495253057 0.0
0.687851278515 0.00381819173891 0.0
0.687325243314 0.00380919465905 0.0
0.686598176508 0.00380219342478 0.0
0.686382764168 0.0037295294287 0.0
0.686359628091 0.00369899975904 0.0
0.686368743415 0.00362458535812 0.0
0.684847214311 0.00359024391146 0.0
0.684637775043 0.0035714911084 0.0
0.684640709124 0.00351302098065 0.0
0.684743711872 0.00347438268393 0.0
0.685265781507 0.00349104097485 0.0
0.68692116883 0.00333564685932 0.0
1.05392151285 -0.134063795232 0.0
0.692740402036 0.0118095280916 0.0
0.763103494056 -0.269233014524 0.0
0.684232876535 0.00466448028064 0.0
0.685117725102 0.00442449371457 0.0
0.677076433423 0.015515353761 0.0
0.677806173506 0.0147986041645 0.0
0.677917973997 0.0147468808277 0.0
0.677884575861 0.0146274409551 0.0
0.678865969346 0.0160901119735 0.0
0.613290355204 -0.042909556483 0.0
0.710965887114 -0.0172085526533 0.0
0.71011108674 -0.0174601088818 0.0
0.694293382059 -0.00690320086178 0.0
0.686657498638 -0.00770385157976 0.0
0.703972586702 -0.0203107637136 0.0
0.925969616176 -0.0366181589744 0.0
0.767860196718 -0.0300608459395 0.0
0.712396749654 0.00714459102438 0.0
0.671466519427 -0.00569863052929 0.0
0.648235361343 0.00643834045967 0.0
0.87392336956 -0.123673716916 0.0
0.69308255438 -0.00358775581302 0.0
1.1904068898 -0.0747168334337 0.0
0.710858433031 -0.00497915317099 0.0
0.712210936951 -0.00582643656364 0.0
0.715244466938 -0.00204358857369 0.0
0.709969488757 -0.0150133366179 0.0
0.711372217788 -0.0175893559988 0.0
0.632539771367 -0.057407559453 0.0
0.717212731182 -0.000489194707838 0.0
0.71983286511 0.00106321432599 0.0
0.716391618547 0.000182717003867 0.0
0.720212645976 -0.00110209863127 0.0
0.711562381745 -0.00171043554692 0.0
0.720363841129 -0.00131331312345 0.0
0.720531338861 -0.00136409686602 0.0
0.720733066679 -0.00130705698414 0.0
0.714380505592 -0.00305113066357 0.0
0.715143993515 -0.0077634852165 0.0
1.14156204684 -0.0329611342729 0.0
1.16827857773 0.00190477894711 0.0
0.719811557812 0.00787428724002 0.0
0.71516800703 0.00153804596543 0.0
0.71427155904 -0.00155629411558 0.0
0.714392527936 0.00130922602736 0.0
0.71296377067 0.00101217152779 0.0
0.713772658011 0.0013923608111 0.0
0.7126175339 0.00114465053004 0.0
0.713168679082 0.0012689497691 0.0
0.712449959508 0.00116939980479 0.0
0.713052969167 0.00121383878212 0.0
0.712221813148 0.0011642270987 0.0
0.713059899964 0.0012272314139 0.0
0.712382122356 0.00127930535974 0.0
0.712784132862 0.00134239522614 0.0
0.80064532013 -0.124906650684 0.0
1.10067915025 -0.00830986648578 0.0
0.653033226578 -0.00148334827155 0.0
0.653514137967 -0.00719120049867 0.0
1.19573975513 -0.458399102892 0.0
0.723461171521 -0.00259129487412 0.0
1.15381992187 -0.0073104784674 0.0
0.722598525702 -0.00591946076719 0.0
0.731040998562 -0.000728507170577 0.0
0.726365228567 0.000685801784181 0.0
0.726493711366 0.00122883501787 0.0
0.728525360468 2.85930176335e-05 0.0
0.727839532752 0.000764819381082 0.0
0.726439215864 0.00254432143319 0.0
0.603397892069 -0.0304512078395 0.0
0.727202331404 0.00133106098941 0.0
0.726966050439 0.00121486146506 0.0
0.726909009507 0.00125590095359 0.0
0.726788879624 0.00146513731871 0.0
0.727775049255 0.00367171531485 0.0
0.727337507503 0.00287952762388 0.0
0.724923236509 0.00460074687807 0.0
0.727444260311 0.00426459820425 0.0
0.725392419384 0.000354846324392 0.0
0.725506445012 -0.00104149042038 0.0
0.728550333371 -0.000508613263179 0.0
0.731919336138 0.00115810707346 0.0
0.731173641958 0.00030913961875 0.0
0.731526904161 -0.00256410636618 0.0
0.795088085017 -0.0400948707704 0.0
0.730887080023 0.000273592428008 0.0
0.729788531884 0.000354191420705 0.0
0.729597028258 2.34805585263e-05 0.0
0.729608287817 -2.81372312763e-05 0.0
0.729622217401 8.12995350367e-06 0.0
0.729268899233 0.000390287423669 0.0
0.625895175374 0.051887392686 0.0
0.624472897329 0.0518586184301 0.0
0.623664197562 0.0517343510546 0.0
0.623777016464 0.0518345617476 0.0
0.62398236251 0.0519218774184 0.0
0.6240302509 0.0519185972721 0.0
0.627283262874 0.0521273441632 0.0
0.627229052239 0.0521301509934 0.0
0.627286901235 0.0521437240542 0.0
0.627517970979 0.0521795069474 0.0
0.628225509858 0.052220875838 0.0