# vtk DataFile Version 2.0
2D Simulation Python
ASCII
DATASET UNSTRUCTURED_GRID
FIELD FieldData 1
NODES 1 2 int
1869 3447

POINTS 1869 double
0.0 1.0 0.0
0.0 3.0 0.0
40.0 3.0 0.0
40.0 0.0 0.0
4.0 0.0 0.0
4.0 1.0 0.0
0.0 1.285714285716665 0.0
0.0 1.571428571430556 0.0
0.0 1.857142857144446 0.0
0.0 2.142857142858336 0.0
0.0 2.428571428572225 0.0
0.0 2.714285714286111 0.0
0.2985074626863422 3.0 0.0
0.5970149253727002 3.0 0.0
0.8955223880590588 3.0 0.0
1.194029850745382 3.0 0.0
1.492537313431632 3.0 0.0
1.791044776117834 3.0 0.0
2.089552238804087 3.0 0.0
2.388059701490418 3.0 0.0
2.686567164176777 3.0 0.0
2.985074626863136 3.0 0.0
3.283582089549494 3.0 0.0
3.582089552235852 3.0 0.0
3.880597014922211 3.0 0.0
4.179104477608569 3.0 0.0
4.477611940294928 3.0 0.0
4.776119402981237 3.0 0.0
5.074626865667346 3.0 0.0
5.373134328353175 3.0 0.0
5.671641791038871 3.0 0.0
5.970149253724567 3.0 0.0
6.268656716410264 3.0 0.0
6.56716417909596 3.0 0.0
6.865671641781655 3.0 0.0
7.164179104467352 3.0 0.0
7.462686567153049 3.0 0.0
7.761194029838745 3.0 0.0
8.05970149252444 3.0 0.0
8.358208955210136 3.0 0.0
8.656716417895833 3.0 0.0
8.95522388058153 3.0 0.0
9.253731343267225 3.0 0.0
9.552238805952921 3.0 0.0
9.850746268638618 3.0 0.0
10.14925373132431 3.0 0.0
10.44776119401001 3.0 0.0
10.7462686566957 3.0 0.0
11.0447761193814 3.0 0.0
11.34328358206709 3.0 0.0
11.64179104475279 3.0 0.0
11.94029850743848 3.0 0.0
12.23880597012418 3.0 0.0
12.53731343280987 3.0 0.0
12.83582089549557 3.0 0.0
13.13432835818127 3.0 0.0
13.43283582086696 3.0 0.0
13.73134328355265 3.0 0.0
14.02985074623835 3.0 0.0
14.32835820892405 3.0 0.0
14.62686567160974 3.0 0.0
14.92537313429544 3.0 0.0
15.22388059698113 3.0 0.0
15.52238805966683 3.0 0.0
15.82089552235252 3.0 0.0
16.11940298503862 3.0 0.0
16.41791044772535 3.0 0.0
16.71641791041237 3.0 0.0
17.01492537309939 3.0 0.0
17.31343283578641 3.0 0.0
17.61194029847344 3.0 0.0
17.91044776116046 3.0 0.0
18.20895522384748 3.0 0.0
18.5074626865345 3.0 0.0
18.80597014922152 3.0 0.0
19.10447761190854 3.0 0.0
19.40298507459556 3.0 0.0
19.70149253728258 3.0 0.0
19.9999999999696 3.0 0.0
20.29850746265662 3.0 0.0
20.59701492534364 3.0 0.0
20.89552238803066 3.0 0.0
21.19402985071768 3.0 0.0
21.49253731340471 3.0 0.0
21.79104477609173 3.0 0.0
22.08955223877875 3.0 0.0
22.38805970146577 3.0 0.0
22.68656716415279 3.0 0.0
22.98507462683981 3.0 0.0
23.28358208952683 3.0 0.0
23.58208955221385 3.0 0.0
23.88059701490088 3.0 0.0
24.1791044775879 3.0 0.0
24.47761194027491 3.0 0.0
24.77611940296193 3.0 0.0
25.07462686564896 3.0 0.0
25.37313432833598 3.0 0.0
25.671641791023 3.0 0.0
25.97014925371002 3.0 0.0
26.26865671639704 3.0 0.0
26.56716417908406 3.0 0.0
26.86567164177108 3.0 0.0
27.1641791044581 3.0 0.0
27.46268656714512 3.0 0.0
27.76119402983214 3.0 0.0
28.05970149251916 3.0 0.0
28.35820895520619 3.0 0.0
28.65671641789321 3.0 0.0
28.95522388058023 3.0 0.0
29.25373134326725 3.0 0.0
29.55223880595426 3.0 0.0
29.85074626864129 3.0 0.0
30.14925373132831 3.0 0.0
30.44776119401533 3.0 0.0
30.74626865670236 3.0 0.0
31.04477611938937 3.0 0.0
31.34328358207639 3.0 0.0
31.64179104476341 3.0 0.0
31.94029850745043 3.0 0.0
32.23880597013746 3.0 0.0
32.53731343282448 3.0 0.0
32.8358208955115 3.0 0.0
33.13432835819852 3.0 0.0
33.43283582088554 3.0 0.0
33.73134328357256 3.0 0.0
34.02985074625958 3.0 0.0
34.3283582089466 3.0 0.0
34.62686567163362 3.0 0.0
34.92537313432064 3.0 0.0
35.22388059700766 3.0 0.0
35.52238805969468 3.0 0.0
35.8208955223817 3.0 0.0
36.11940298506872 3.0 0.0
36.41791044775574 3.0 0.0
36.71641791044276 3.0 0.0
37.01492537312978 3.0 0.0
37.31343283581681 3.0 0.0
37.61194029850382 3.0 0.0
37.91044776119085 3.0 0.0
38.20895522387787 3.0 0.0
38.5074626865649 3.0 0.0
38.80597014925192 3.0 0.0
39.10447761193894 3.0 0.0
39.40298507462596 3.0 0.0
39.70149253731298 3.0 0.0
40.0 2.700000000001935 0.0
40.0 2.400000000003002 0.0
40.0 2.100000000002161 0.0
40.0 1.800000000002828 0.0
40.0 1.500000000004164 0.0
40.0 1.200000000003365 0.0
40.0 0.9000000000025241 0.0
40.0 0.6000000000016827 0.0
40.0 0.3000000000008414 0.0
39.70000000000115 0.0 0.0
39.40000000000229 0.0 0.0
39.10000000000343 0.0 0.0
38.80000000000458 0.0 0.0
38.50000000000572 0.0 0.0
38.20000000000687 0.0 0.0
37.90000000000801 0.0 0.0
37.60000000000915 0.0 0.0
37.3000000000103 0.0 0.0
37.00000000001144 0.0 0.0
36.70000000001259 0.0 0.0
36.40000000001373 0.0 0.0
36.10000000001487 0.0 0.0
35.80000000001602 0.0 0.0
35.50000000001717 0.0 0.0
35.20000000001831 0.0 0.0
34.90000000001945 0.0 0.0
34.6000000000206 0.0 0.0
34.30000000002174 0.0 0.0
34.00000000002289 0.0 0.0
33.70000000002403 0.0 0.0
33.40000000002517 0.0 0.0
33.10000000002632 0.0 0.0
32.80000000002747 0.0 0.0
32.50000000002861 0.0 0.0
32.20000000002975 0.0 0.0
31.9000000000309 0.0 0.0
31.60000000003204 0.0 0.0
31.30000000003319 0.0 0.0
31.00000000003433 0.0 0.0
30.70000000003548 0.0 0.0
30.40000000003662 0.0 0.0
30.10000000003777 0.0 0.0
29.80000000003891 0.0 0.0
29.50000000004005 0.0 0.0
29.2000000000412 0.0 0.0
28.90000000004234 0.0 0.0
28.60000000004348 0.0 0.0
28.30000000004463 0.0 0.0
28.00000000004577 0.0 0.0
27.70000000004692 0.0 0.0
27.40000000004806 0.0 0.0
27.1000000000492 0.0 0.0
26.80000000005035 0.0 0.0
26.50000000005149 0.0 0.0
26.20000000005263 0.0 0.0
25.90000000005378 0.0 0.0
25.60000000005492 0.0 0.0
25.30000000005606 0.0 0.0
25.00000000005721 0.0 0.0
24.70000000005835 0.0 0.0
24.40000000005949 0.0 0.0
24.10000000006064 0.0 0.0
23.80000000006178 0.0 0.0
23.50000000006293 0.0 0.0
23.20000000006407 0.0 0.0
22.90000000006521 0.0 0.0
22.60000000006636 0.0 0.0
22.3000000000675 0.0 0.0
22.00000000006795 0.0 0.0
21.70000000006683 0.0 0.0
21.40000000006501 0.0 0.0
21.1000000000632 0.0 0.0
20.80000000006138 0.0 0.0
20.50000000005956 0.0 0.0
20.20000000005775 0.0 0.0
19.90000000005593 0.0 0.0
19.60000000005412 0.0 0.0
19.3000000000523 0.0 0.0
19.00000000005049 0.0 0.0
18.70000000004867 0.0 0.0
18.40000000004686 0.0 0.0
18.10000000004504 0.0 0.0
17.80000000004323 0.0 0.0
17.50000000004141 0.0 0.0
17.2000000000396 0.0 0.0
16.90000000003779 0.0 0.0
16.60000000003597 0.0 0.0
16.30000000003416 0.0 0.0
16.00000000003234 0.0 0.0
15.70000000003053 0.0 0.0
15.40000000002871 0.0 0.0
15.1000000000269 0.0 0.0
14.80000000002508 0.0 0.0
14.50000000002327 0.0 0.0
14.20000000002145 0.0 0.0
13.90000000001964 0.0 0.0
13.60000000001783 0.0 0.0
13.30000000001601 0.0 0.0
13.0000000000142 0.0 0.0
12.70000000001238 0.0 0.0
12.40000000001056 0.0 0.0
12.10000000000875 0.0 0.0
11.80000000000694 0.0 0.0
11.50000000000512 0.0 0.0
11.20000000000331 0.0 0.0
10.90000000000149 0.0 0.0
10.59999999999968 0.0 0.0
10.29999999999787 0.0 0.0
9.99999999999605 0.0 0.0
9.699999999994237 0.0 0.0
9.399999999992424 0.0 0.0
9.099999999990604 0.0 0.0
8.799999999988792 0.0 0.0
8.499999999986976 0.0 0.0
8.199999999985256 0.0 0.0
7.899999999985106 0.0 0.0
7.599999999986252 0.0 0.0
7.299999999987392 0.0 0.0
6.999999999988546 0.0 0.0
6.699999999989686 0.0 0.0
6.399999999990833 0.0 0.0
6.099999999991979 0.0 0.0
5.799999999993126 0.0 0.0
5.499999999994273 0.0 0.0
5.199999999995413 0.0 0.0
4.899999999996567 0.0 0.0
4.599999999997706 0.0 0.0
4.299999999998853 0.0 0.0
4.0 0.2499999999994109 0.0
4.0 0.4999999999986918 0.0
4.0 0.7499999999993401 0.0
3.714285714284526 1.0 0.0
3.428571428569844 1.0 0.0
3.142857142857542 1.0 0.0
2.85714285714524 1.0 0.0
2.571428571432937 1.0 0.0
2.285714285720635 1.0 0.0
2.000000000008246 1.0 0.0
1.714285714292858 1.0 0.0
1.428571428577383 1.0 0.0
1.142857142861906 1.0 0.0
0.8571428571464295 1.0 0.0
0.5714285714309533 1.0 0.0
0.2857142857154762 1.0 0.0
5.440895737063815 1.5321810752057226 0.0
38.359631109480205 1.5447862624578594 0.0
36.55156595862513 1.5678345293898692 0.0
34.78710000302187 1.5642234316343742 0.0
32.9971954225337 1.5616773154845147 0.0
31.206213093159832 1.5616241273381726 0.0
29.41743466562333 1.560813469344192 0.0
27.626772764562254 1.5595442904607533 0.0
25.8345099987122 1.5596010883176028 0.0
24.038234267385175 1.5598722611419031 0.0
22.28410800461182 1.5615988969890857 0.0
20.49887470353422 1.5590348043573192 0.0
18.706375623998746 1.5616894963191854 0.0
16.914750360834766 1.563910776410858 0.0
15.128618847375977 1.5556246456016476 0.0
13.33374344126039 1.5511890511266595 0.0
7.030759682398678 1.534442092687481 0.0
11.566049076409328 1.4969212260342677 0.0
8.761848711004971 1.5139156602083867 0.0
10.122611928795317 1.6236584616968261 0.0
4.526369532015368 1.9188661001514808 0.0
3.5185905812745153 2.0252610404151303 0.0
0.8929602934338949 2.0484837616277805 0.0
2.1303862954741786 2.0128365285831764 0.0
37.45664389250272 1.9215745158530688 0.0
35.76980667423149 1.9566969156967804 0.0
33.97560565425424 1.951129826056218 0.0
32.18468257484926 1.9502423738014634 0.0
30.393953542480887 1.9506962134922115 0.0
28.603869422410817 1.9490708688174188 0.0
26.81243432007293 1.9489436858605451 0.0
25.020320832831715 1.9489079511655873 0.0
23.222921081222125 1.9532226644536412 0.0
21.438577064798203 1.9510574224417399 0.0
19.648320628121976 1.9527003755547225 0.0
17.85646983812719 1.9551347438424853 0.0
16.066386904528457 1.9524591667910451 0.0
14.276194644033797 1.949504085905422 0.0
12.469240233774332 1.9331189870611798 0.0
7.903765740008337 1.9170293474259146 0.0
32.11693620250729 1.0153772846462719 0.0
33.9052719667752 1.018314117442152 0.0
30.327339895719167 1.0165516066818012 0.0
35.685997274784626 1.0240920134690144 0.0
37.47826336526687 0.9143900830224962 0.0
28.544382306259507 1.008832531079308 0.0
26.750770900913658 1.008697819364698 0.0
24.956031422002802 1.0087920104531238 0.0
23.15163741793711 1.0082816543559 0.0
21.376334792735403 0.9954454147104485 0.0
19.585082890394872 1.0071215101888775 0.0
17.79121251690518 1.0187009575384915 0.0
16.01281168302144 1.0009471538479193 0.0
14.223190832776599 0.9947506625384457 0.0
12.435116110262122 0.9533072381305729 0.0
7.904118015944833 0.9516540425309552 0.0
6.260075186818547 0.9882083828748837 0.0
6.226199612153765 2.037271304307933 0.0
4.831970914683074 0.828771924662698 0.0
[...]
POINT_DATA 1869
VECTORS vector double
0.0 0.0 0.0
0.0 0.0 0.0
0.0 0.0 0.0
0.0 0.0 0.0
0.0 0.0 0.0
0.0 0.0 0.0
0.734693877556 0.0 0.0
1.22448979592 0.0 0.0
1.4693877551 0.0 0.0
1.4693877551 0.0 0.0
1.22448979592 0.0 0.0
0.73469387755 0.0 0.0
0.0 0.0 0.0
0.0 0.0 0.0
0.0 0.0 0.0
0.0 0.0 0.0
0.0 0.0 0.0
0.0 0.0 0.0
0.0 0.0 0.0
0.0 0.0 0.0
0.0 0.0 0.0
0.0 0.0 0.0
0.0 0.0 0.0
0.0 0.0 0.0
0.0 0.0 0.0
0.0 0.0 0.0
0.0 0.0 0.0
0.0 0.0 0.0
0.0 0.0 0.0
0.0 0.0 0.0
0.0 0.0 0.0
0.0 0.0 0.0
0.0 0.0 0.0
0.0 0.0 0.0
0.0 0.0 0.0
0.0 0.0 0.0
0.0 0.0 0.0
0.0 0.0 0.0
0.0 0.0 0.0
0.0 0.0 0.0
0.0 0.0 0.0
0.0 0.0 0.0
0.0 0.0 0.0
0.0 0.0 0.0
0.0 0.0 0.0
0.0 0.0 0.0
0.0 0.0 0.0
0.0 0.0 0.0
0.0 0.0 0.0
0.0 0.0 0.0
0.0 0.0 0.0
0.0 0.0 0.0
0.0 0.0 0.0
0.0 0.0 0.0
0.0 0.0 0.0
0.0 0.0 0.0
0.0 0.0 0.0
0.0 0.0 0.0
0.0 0.0 0.0
0.0 0.0 0.0
0.0 0.0 0.0
0.0 0.0 0.0
0.0 0.0 0.0
0.0 0.0 0.0
0.0 0.0 0.0
0.0 0.0 0.0
0.0 0.0 0.0
0.0 0.0 0.0
0.0 0.0 0.0
0.0 0.0 0.0
0.0 0.0 0.0
0.0 0.0 0.0
0.0 0.0 0.0
0.0 0.0 0.0
0.0 0.0 0.0
0.0 0.0 0.0
0.0 0.0 0.0
0.0 0.0 0.0
0.0 0.0 0.0
0.0 0.0 0.0
0.0 0.0 0.0
0.0 0.0 0.0
0.0 0.0 0.0
0.0 0.0 0.0
0.0 0.0 0.0
0.0 0.0 0.0
0.0 0.0 0.0
0.0 0.0 0.0
0.0 0.0 0.0
0.0 0.0 0.0
0.0 0.0 0.0
0.0 0.0 0.0
0.0 0.0 0.0
0.0 0.0 0.0
0.0 0.0 0.0
0.0 0.0 0.0
0.0 0.0 0.0
0.0 0.0 0.0
0.0 0.0 0.0
0.0 0.0 0.0
0.0 0.0 0.0
0.0 0.0 0.0
0.0 0.0 0.0
0.0 0.0 0.0
0.0 0.0 0.0
0.0 0.0 0.0
0.0 0.0 0.0
0.0 0.0 0.0
0.0 0.0 0.0
0.0 0.0 0.0
0.0 0.0 0.0
0.0 0.0 0.0
0.0 0.0 0.0
0.0 0.0 0.0
0.0 0.0 0.0
0.0 0.0 0.0
0.0 0.0 0.0
0.0 0.0 0.0
0.0 0.0 0.0
0.0 0.0 0.0
0.0 0.0 0.0
0.0 0.0 0.0
0.0 0.0 0.0
0.0 0.0 0.0
0.0 0.0 0.0
0.0 0.0 0.0
0.0 0.0 0.0
0.0 0.0 0.0
0.0 0.0 0.0
0.0 0.0 0.0
0.0 0.0 0.0
0.0 0.0 0.0
0.0 0.0 0.0
0.0 0.0 0.0
0.0 0.0 0.0
0.0 0.0 0.0
0.0 0.0 0.0
0.0 0.0 0.0
0.0 0.0 0.0
0.0 0.0 0.0
0.0 0.0 0.0
0.0 0.0 0.0
0.0 0.0 0.0
0.0 0.0 0.0
0.0 0.0 0.0
0.347022750289 0.0194916499245 0.0
0.618920024845 0.00638985389624 0.0
0.838052230155 0.00894197955414 0.0
0.978519274215 0.00272469226591 0.0
1.0244400005 5.07771195796e-05 0.0
0.975814425677 -0.0021026079113 0.0
0.841931513072 -0.0100016023088 0.0
0.629890273622 -0.00501900519052 0.0
0.348891146167 -0.0187418984553 0.0
0.0 0.0 0.0
0.0 0.0 0.0
0.0 0.0 0.0
0.0 0.0 0.0
0.0 0.0 0.0
0.0 0.0 0.0
0.0 0.0 0.0
0.0 0.0 0.0
0.0 0.0 0.0
0.0 0.0 0.0
0.0 0.0 0.0
0.0 0.0 0.0
0.0 0.0 0.0
0.0 0.0 0.0
0.0 0.0 0.0
0.0 0.0 0.0
0.0 0.0 0.0
0.0 0.0 0.0
0.0 0.0 0.0
0.0 0.0 0.0
0.0 0.0 0.0
0.0 0.0 0.0
0.0 0.0 0.0
0.0 0.0 0.0
0.0 0.0 0.0
0.0 0.0 0.0
0.0 0.0 0.0
0.0 0.0 0.0
0.0 0.0 0.0
0.0 0.0 0.0
0.0 0.0 0.0
0.0 0.0 0.0
0.0 0.0 0.0
0.0 0.0 0.0
0.0 0.0 0.0
0.0 0.0 0.0
0.0 0.0 0.0
0.0 0.0 0.0
0.0 0.0 0.0
0.0 0.0 0.0
0.0 0.0 0.0
0.0 0.0 0.0
0.0 0.0 0.0
0.0 0.0 0.0
0.0 0.0 0.0
0.0 0.0 0.0
0.0 0.0 0.0
0.0 0.0 0.0
0.0 0.0 0.0
0.0 0.0 0.0
0.0 0.0 0.0
0.0 0.0 0.0
0.0 0.0 0.0
0.0 0.0 0.0
0.0 0.0 0.0
0.0 0.0 0.0
0.0 0.0 0.0
0.0 0.0 0.0
0.0 0.0 0.0
0.0 0.0 0.0
0.0 0.0 0.0
0.0 0.0 0.0
0.0 0.0 0.0
0.0 0.0 0.0
0.0 0.0 0.0
0.0 0.0 0.0
0.0 0.0 0.0
0.0 0.0 0.0
0.0 0.0 0.0
0.0 0.0 0.0
0.0 0.0 0.0
0.0 0.0 0.0
0.0 0.0 0.0
0.0 0.0 0.0
0.0 0.0 0.0
0.0 0.0 0.0
0.0 0.0 0.0
0.0 0.0 0.0
0.0 0.0 0.0
0.0 0.0 0.0
0.0 0.0 0.0
0.0 0.0 0.0
0.0 0.0 0.0
0.0 0.0 0.0
0.0 0.0 0.0
0.0 0.0 0.0
0.0 0.0 0.0
0.0 0.0 0.0
0.0 0.0 0.0
0.0 0.0 0.0
0.0 0.0 0.0
0.0 0.0 0.0
0.0 0.0 0.0
0.0 0.0 0.0
0.0 0.0 0.0
0.0 0.0 0.0
0.0 0.0 0.0
0.0 0.0 0.0
0.0 0.0 0.0
0.0 0.0 0.0
0.0 0.0 0.0
0.0 0.0 0.0
0.0 0.0 0.0
0.0 0.0 0.0
0.0 0.0 0.0
0.0 0.0 0.0
0.0 0.0 0.0
0.0 0.0 0.0
0.0 0.0 0.0
0.0 0.0 0.0
0.0 0.0 0.0
0.0 0.0 0.0
0.0 0.0 0.0
0.0 0.0 0.0
0.0 0.0 0.0
0.0 0.0 0.0
0.0 0.0 0.0
0.0 0.0 0.0
0.0 0.0 0.0
0.0 0.0 0.0
0.0 0.0 0.0
0.0 0.0 0.0
0.0 0.0 0.0
0.0 0.0 0.0
0.0 0.0 0.0
0.0 0.0 0.0
0.0 0.0 0.0
0.0 0.0 0.0
0.0 0.0 0.0
0.0 0.0 0.0
0.0 0.0 0.0
0.0 0.0 0.0
0.0 0.0 0.0
0.0 0.0 0.0
0.0 0.0 0.0
1.1156431623 -0.233536146853 0.0
0.983704988843 -0.000955461967649 0.0
0.978003460583 0.00167470030576 0.0
0.981250688883 0.000683603110654 0.0
0.981185920985 -0.000247326549701 0.0
0.980868369494 0.000130047483894 0.0
0.979608858906 -6.79659761283e-05 0.0
0.979528547451 -0.000417661893996 0.0
0.979518917768 -0.000637115570608 0.0
0.979564115393 -0.000498751070381 0.0
0.979633297769 0.00146380250289 0.0
0.978235246977 0.000801267397559 0.0
0.978304916106 -0.000306270691415 0.0
0.979476420573 -0.000371596595438 0.0
0.980473586988 -5.41168149061e-05 0.0
0.980272975332 -0.00328745366442 0.0
1.00128402709 -0.0545449316132 0.0
0.978948473624 0.000557347829044 0.0
0.981033782678 0.00880148058089 0.0
0.971748204921 0.00611928761543 0.0
1.33955289995 -0.182466571781 0.0
1.46754457389 -0.083075103984 0.0
1.48753912493 0.00262505352547 0.0
1.47821794295 -0.0114790029528 0.0
0.914242104116 -0.00272842542646 0.0
0.901181946706 0.00590649013697 0.0
0.902736845922 0.00309298284342 0.0
0.902670153184 0.00287036029943 0.0
0.901546141896 0.00319044883633 0.0
0.901410835311 0.0028473803488 0.0
0.901353992026 0.00267670436535 0.0
0.901554569012 0.00252603758545 0.0
0.900054313693 0.00305193646461 0.0
0.898933509386 0.00337613666482 0.0
0.897414768155 0.00263989172718 0.0
0.89745961257 0.00213810714046 0.0
0.899600464399 0.00248242858059 0.0
0.901459261943 0.00146963829337 0.0
0.908781755968 -0.00237990620299 0.0
0.90975599885 0.00328042541429 0.0
0.893533200803 0.000563230402242 0.0
0.894274885283 0.000695459026604 0.0
0.89421871032 0.00174483411341 0.0
0.894805090239 0.00122031269197 0.0
0.842912720827 -0.00217786785523 0.0
0.891259909558 0.000609040249614 0.0
0.891293173077 0.000420322483 0.0
0.891147611133 0.00026144146472 0.0
0.890998037596 0.00152148132916 0.0
0.882595962736 0.00288508068925 0.0
0.887287240676 0.00107814615801 0.0
0.894198780872 -0.00102210789355 0.0
0.888315849653 0.000574046172028 0.0
0.884713531129 -0.000110524062226 0.0
0.860997680517 -0.00280514166204 0.0
0.870975213805 -0.00327369868691 0.0
0.815743150922 -0.131788083478 0.0
0.965804188266 -0.0825678652995 0.0
0.388341830826 -0.162246057686 0.0
0.854999470962 9.83276401624e-05 0.0
0.86524105139 0.00870635318125 0.0
0.836514649448 -0.0075821638313 0.0
0.842238171438 0.00459832203249 0.0
0.849576122442 -0.00379437767648 0.0
0.79794134594 0.010627777497 0.0
0.984629386183 -0.101637512525 0.0
0.760296674906 -0.0259919146829 0.0
0.746103687063 -0.0088038487137 0.0
0.745624064525 -0.0073168862297 0.0
0.768059317715 -0.00552619821249 0.0
0.760744920972 -0.00756398333252 0.0
0.759418258129 -0.00628291466508 0.0
0.757207639981 -0.00249193094576 0.0
0.759079702678 -0.00418477780841 0.0
0.759096393611 -0.0042718379991 0.0
0.759223514351 -0.00412611164676 0.0
0.759568448754 -0.00389793538626 0.0
0.76289732174 -0.000234286139984 0.0
0.762132899396 -0.000688722302903 0.0
0.799254364715 -0.0034043193289 0.0
0.763800724341 0.000462702576657 0.0
0.763302609106 0.00818841353538 0.0
0.746071473665 -0.00239833755238 0.0
0.750083923602 -0.00646060674982 0.0
0.804064665177 0.00142772386489 0.0
0.742157656939 0.00545537455899 0.0
0.742376386871 0.00473923987048 0.0
0.741920846266 0.00482448482214 0.0
0.740937331393 0.00484788091631 0.0
0.792452878586 0.00577656599233 0.0
0.740895020241 0.00469153896514 0.0
0.740915331245 0.00457925658025 0.0
0.741253604804 0.00456341817764 0.0
0.734011850989 0.00511311359092 0.0
0.733131414347 0.0049802619991 0.0
0.732434768592 0.00454812327068 0.0
0.732877991436 0.00449443085561 0.0
0.73489718815 0.00465466618466 0.0
0.739277478359 0.0024426989548 0.0
0.773167626538 -0.0152422535088 0.0
0.711252343331 -3.17541687769e-05 0.0
0.71245737471 0.00152303689846 0.0
1.40674477583 -0.0320657644084 0.0
0.435689812805 -0.13536349028 0.0
1.22464653945 -0.0210598968382 0.0
0.745859334491 5.80075999361e-05 0.0
1.18341121709 0.0101481228072 0.0
1.3601424499 -0.148932942807 0.0
0.692568692503 0.00345246096465 0.0
1.32733675323 -0.0194538641453 0.0
1.02997711879 -0.288951518451 0.0
1.07782468433 -0.0580083469908 0.0
0.99849724962 -0.00289290288519 0.0
0.668247743311 -0.0110933135621 0.0
0.659321493191 -0.00760371061039 0.0
0.657524827155 -0.0074393064131 0.0
0.656392841138 -0.0074383891111 0.0
0.656753001858 -0.00715783420975 0.0
0.658013199482 -0.00698098484937 0.0
0.660084478976 -0.00711666961181 0.0
0.660800565218 -0.00732466118244 0.0
0.660652629187 -0.00722639304661 0.0
0.660762963936 -0.00712978505536 0.0
0.661189258844 -0.00701914487323 0.0
0.661946676706 -0.00716760859237 0.0
0.662098660527 -0.00689203723157 0.0
0.645893672216 0.00609173498697 0.0
0.66684797981 0.00127745955647 0.0
0.979578641284 0.00235239047278 0.0
0.978629068121 0.00716737475864 0.0
0.671476066063 -0.0141720010059 0.0
0.674354650067 -0.0126659988288 0.0
0.672954120397 -0.0151537119814 0.0
0.684129177348 -0.016734158724 0.0
1.15274667609 0.0194515781773 0.0
0.680864251934 -0.0158246270155 0.0
0.687422613668 0.00137481426113 0.0
0.693846772816 0.00036502731939 0.0
0.694056397517 0.000444447511149 0.0
0.694039661455 0.000579457310023 0.0
0.691418738692 -0.000970514220235 0.0
0.695636012853 0.00101467728234 0.0
0.69232610315 -0.00150609746169 0.0
0.692371611531 -0.0017037706861 0.0
1.14006257419 -0.00699765703863 0.0
0.75317370762 -0.0457282053163 0.0
0.984417691883 -0.0014035428583 0.0
0.984430733807 -0.000979986855618 0.0
0.983849075559 -0.000786466935423 0.0
0.983215274752 -0.00149674066555 0.0
0.982471966972 0.000435644011631 0.0
0.983166215805 -0.00173744273967 0.0
0.983156980467 -0.00194072460748 0.0
0.983179636128 -0.00126489107466 0.0
0.981453493265 -0.00035642036844 0.0
0.980400044455 -0.00141572344136 0.0
0.981206045709 -0.0023652565302 0.0
0.98275135859 -0.0020781840725 0.0
0.982718304625 -0.002621944127 0.0
0.980774759036 -0.00598038687339 0.0
0.987472128368 -0.0103976618813 0.0
0.980660122733 -0.00554803377786 0.0
0.980167722067 0.000492300448419 0.0
1.04295272029 -0.172192184579 0.0
0.559158691943 -0.0283548469971 0.0
0.984304746066 0.00117598687829 0.0
0.984210987071 0.00118892652675 0.0
0.983140448624 0.00166315312873 0.0
0.983889611809 0.0025440804612 0.0
0.982862137588 0.0011220115767 0.0
0.98283679687 0.00090637549789 0.0
0.982853891336 0.00076991893479 0.0
0.983179317643 0.00120841927986 0.0
0.98144529208 0.00111290588504 0.0
0.981043241769 -0.00015178688988 0.0
0.589100870611 -0.0236790067187 0.0
0.982271844583 -0.000710931847212 0.0
0.983433590406 2.16680481682e-05 0.0
0.983309422976 -0.00184664217809 0.0
0.979359520816 -0.00218973546353 0.0
0.984586552736 0.00406481403848 0.0
0.837208855766 -0.0714863100304 0.0
1.18755442043 -0.267685612292 0.0
0.568515364797 0.000169941129141 0.0
0.588332405751 0.00523119377755 0.0
1.19236786748 -0.0379611104375 0.0
0.0108757935551 -0.0198623458954 0.0
0.553457393032 -0.00573688046261 0.0
0.580446439978 -0.00395219443232 0.0
0.594938989143 0.00761925140801 0.0
0.56886655237 0.00957739225716 0.0
1.05662079747 -0.0135591694099 0.0
0.545110700823 -0.000258326673409 0.0
0.569886141999 -0.00227836367815 0.0
0.546285410197 -0.000359302078536 0.0
0.617331732428 -0.00578882297786 0.0
0.621602839765 0.00495008267545 0.0
0.592223990176 -0.0028761176527 0.0
0.623284686672 0.00364045048686 0.0
0.623089139346 0.00358775806969 0.0
0.622135205434 0.00369243274618 0.0
0.622056804502 0.00356153188553 0.0
0.621987489748 0.00349253352798 0.0
0.622320431385 0.00344214529718 0.0
0.617362911007 0.00385138045109 0.0
0.616802328012 0.00385461473063 0.0
0.615683181363 0.00358615808079 0.0
0.615568391818 0.00344721624155 0.0
0.617223196712 0.00356441318857 0.0
0.619558293842 0.00283173285084 0.0
0.583443665554 0.00499627089591 0.0
0.632080908546 -0.00392972981813 0.0
0.546496091069 -0.000272205748755 0.0
0.598543235728 0.00266011135592 0.0
0.545198905516 0.006324940869 0.0
0.54646021392 -0.000172175012346 0.0
0.540098519873 0.00680264960653 0.0
1.1866932329 -0.00922976690147 0.0
0.554496188733 0.00377900024585 0.0
0.556861367016 -0.00798647123065 0.0
0.55298184551 0.00213970912893 0.0
0.552328095571 0.002896523155 0.0
0.554367275133 0.0040651734534 0.0
0.559766780877 0.00411973856639 0.0
0.505263936904 -0.00275790911938 0.0
1.0758293464 -0.00532934498443 0.0
1.09005140809 0.0152980406086 0.0
1.00615864602 -0.110693958122 0.0
0.925996344075 0.00129873356146 0.0
0.549826981584 0.000123210012487 0.0
0.536062644947 0.00169901387038 0.0
1.03870339649 -0.0278649295776 0.0
0.584007210993 0.00292040702247 0.0
0.948606133978 -0.0563397746726 0.0
0.590119907025 -0.000916385253898 0.0
0.984821832412 -0.00551724226719 0.0
0.431157083452 -0.0792645945927 0.0
0.557374323734 0.00318324542821 0.0
0.581010513697 0.00191397586137 0.0
0.585723355218 0.00280218400826 0.0
0.919264875382 0.000729782954373 0.0
0.908628247261 0.000351339678064 0.0
0.922498786608 0.00849433816634 0.0
1.08182197112 -0.137399935621 0.0
0.906456354499 0.00317514270372 0.0
0.908862301797 -0.00158668841726 0.0
0.90888575505 -0.00219913766089 0.0
0.908140339135 -0.00188988362593 0.0
0.907440996669 -0.00211533711599 0.0
0.907396179023 -0.00232956049795 0.0
0.907477953399 -0.00250520242142 0.0
0.907391668624 -0.00227808339524 0.0
0.905234882054 -0.0016925902567 0.0
0.903814935269 -0.00223244921476 0.0
0.903636442214 -0.00295139881475 0.0
0.905003118454 -0.00284694064088 0.0
0.907083199177 -0.00296228538387 0.0
0.911227365227 -0.00659096266228 0.0
0.910129422189 -0.00493163564635 0.0
0.912796533817 -0.0026024019974 0.0
0.916486231909 -0.00307446541525 0.0
0.914440948902 -0.00332760388001 0.0
0.913188215199 -0.00213389432694 0.0
0.916762861941 -0.000695443194201 0.0
0.925483037153 -0.0020572373715 0.0
0.927727321671 -0.00117582578928 0.0
0.925631844992 -0.00203873406638 0.0
0.927330671231 -0.00207862984238 0.0
0.925691573611 -0.00184465898046 0.0
0.927306482284 -0.00178049064809 0.0
0.926494673378 -0.00128599372092 0.0
0.142061590546 -0.070867975492 0.0
0.905850528655 -0.000374357493486 0.0
0.914391559976 -0.00810130837587 0.0
0.924758689609 0.00950924247777 0.0
0.889456403323 -0.0729690050592 0.0
0.520991438253 -0.0024342744573 0.0
0.512273728353 0.00504449335044 0.0
0.314617809154 -0.163086354025 0.0
0.891153064107 -0.00567483698743 0.0
0.886369570937 0.0106814091844 0.0
0.901214614354 -0.000536407206379 0.0
0.60306828941 -0.00247433945732 0.0
0.707097991512 -0.212262597592 0.0
0.885895583259 0.00137705273473 0.0
0.551063161068 -0.0124800824929 0.0
0.82295828698 -0.205046044922 0.0
1.48556827631 0.00791756240873 0.0
1.03689583581 0.000861881007961 0.0
0.900563383291 0.0058417813333 0.0
0.936302957597 0.00421759484333 0.0
0.92444347528 0.00238795989249 0.0
0.92968641719 -0.0146651412074 0.0
0.920330210222 -0.00378285231129 0.0
1.46526605529 -0.0143817740953 0.0
0.990136845396 0.000106048500916 0.0
0.924475815058 0.00269464960265 0.0
0.911833127541 -0.00160567781651 0.0
0.911564143827 -0.00158205449527 0.0
0.911252749279 -3.47177261529e-05 0.0
0.910289800323 -0.00136970008631 0.0
0.910301456507 -0.00170770256391 0.0
0.935790450009 0.00683691219034 0.0
0.910276585798 -0.0018801531433 0.0
0.910525653064 -0.00194966358124 0.0
0.902382814167 -0.000667226935383 0.0
0.90151211451 -0.000710906990545 0.0
0.90058054546 -0.00150682808277 0.0
0.901007649978 -0.00179007514073 0.0
0.903295144417 -0.00143896070064 0.0
0.905398813607 -0.00342446905555 0.0
0.898951555031 -0.0036972079438 0.0
0.884832882106 0.00930801413202 0.0
0.94482948371 -0.00447371616869 0.0
0.944885983243 -0.0324560573627 0.0
0.939904316237 -0.00619391253881 0.0
0.94369298871 -0.00312064801117 0.0
0.947291742463 -0.0034120862423 0.0
0.945948049528 -0.00327679723414 0.0
0.944890124944 -0.00199848801215 0.0
0.945208922642 -0.000743629452976 0.0
0.94845062204 -0.000329904991261 0.0
0.949237777126 -0.00103362287936 0.0
0.948811945593 -0.00181005970753 0.0
0.946750305621 -0.00250885509527 0.0
0.948979925554 -0.00115233740156 0.0
0.946706267242 -0.00279239171376 0.0
0.946959440539 -0.00225656719578 0.0
0.946794540785 -0.00258172448352 0.0
0.432527614175 0.0229570984384 0.0
0.490104416056 -0.00284655438938 0.0
0.419036172867 0.00753820128679 0.0
0.418891268161 0.00736089648462 0.0
0.418531088832 0.00737791737287 0.0
0.417994317812 0.00738088619415 0.0
0.417891064212 0.00733482508026 0.0
0.417940783496 0.0072993699464 0.0
0.41806814815 0.00727869048375 0.0
0.414651534192 0.00748536607096 0.0
0.413887302505 0.00741330087575 0.0
0.413474249552 0.00728935301311 0.0
0.413855540894 0.00731841292 0.0
0.414877819856 0.00736629562283 0.0
0.420039487836 0.0063542629235 0.0
1.41317269756 -0.13146592537 0.0
0.43269399976 0.0154488683116 0.0
0.960322418221 -0.272851581113 0.0
0.428066358372 0.0147749746075 0.0
0.428979895569 0.0147461337406 0.0
0.436407044314 0.0167622707214 0.0
0.436714728273 0.0162830229385 0.0
0.436965489693 0.016170181478 0.0
0.436975774695 0.0160849107686 0.0
0.436868682407 0.0173038070244 0.0
0.29962549511 -0.0112247719771 0.0
0.460586618999 -0.0100584902107 0.0
0.46207919103 -0.0110038500439 0.0
0.470655865484 -0.00430954428387 0.0
0.43165666403 -0.00802858460407 0.0
0.445098032268 -0.011544109835 0.0
0.728511581896 -0.0275746606371 0.0
0.542846202271 -0.0397223580184 0.0
0.475462002012 -0.00889761105708 0.0
0.409926128334 -0.00804620231576 0.0
0.395799801463 0.00569105523927 0.0
1.21628209173 -0.154828711987 0.0
0.489198641194 -0.0265708914236 0.0
1.04092408444 -0.0686043099185 0.0
0.495586498404 -0.00807806484732 0.0
0.498403817925 -0.00848006440708 0.0
0.525991219289 -0.0101107314491 0.0
0.536541302397 -0.0221983291823 0.0
0.528219991111 -0.0226295120919 0.0
0.336353702523 -0.0234404726444 0.0
0.531449273299 0.00600027393608 0.0
0.5350064829 0.00729655245612 0.0
0.532382413869 0.00549683132231 0.0
0.530341328587 0.00726320449306 0.0
0.514522247253 -0.00412079387901 0.0
0.530553248483 0.00727509238944 0.0
0.530444221321 0.00726312484256 0.0
0.527822199667 0.00767516714102 0.0
0.533063832185 0.00415970858404 0.0
0.485929050745 0.00828772472587 0.0
1.47161917818 -0.0377189960153 0.0
1.48502443054 -0.000578946784564 0.0
0.545416846677 0.0101502415748 0.0
0.549070776724 0.0065976616905 0.0
0.556095459046 0.00247242097193 0.0
0.548901445629 0.00651569395812 0.0
0.546288048973 0.0059408947961 0.0
0.548118786265 0.00659926490209 0.0
0.544679623221 0.00631545019222 0.0
0.547900545987 0.00650545348701 0.0
0.543427956579 0.00619805963399 0.0
0.547803448372 0.00645210003257 0.0
0.543653457319 0.00636963437963 0.0
0.548052426965 0.0064042461314 0.0
0.544826316139 0.00660997813695 0.0
0.545752701867 0.00664363416368 0.0
1.18506617412 -0.205240056628 0.0
0.932477202001 -0.0106983200862 0.0
0.337763644756 -0.00437061825082 0.0
0.34967206922 0.00563011271901 0.0
0.910067150473 -0.21307414089 0.0
0.525680482438 0.00562504005669 0.0
1.47886789215 -0.00345680743548 0.0
0.842809199019 -0.0012264839544 0.0
0.834472879693 -0.0117868462788 0.0
0.842813090681 -0.00831061201181 0.0
0.849718465305 -0.00859505278987 0.0
0.855429155473 -0.00770818157957 0.0
0.852301206482 -0.00700111950671 0.0
0.846181116448 -0.00624086511016 0.0
0.195434288635 -0.0462381143856 0.0
0.847593220521 -0.00806058584334 0.0
0.847394500723 -0.00834608238521 0.0
0.847578174225 -0.00819399691536 0.0
0.847652469236 -0.00803053901016 0.0
0.850747003472 -0.00599473944603 0.0
0.849688291759 -0.00692893760139 0.0
0.856235877282 -0.00818009458398 0.0
0.85104203189 -0.00648309296345 0.0
0.977892737642 0.0118160262842 0.0
0.970734300374 -0.00135642082639 0.0
0.947721065427 0.00439292238547 0.0
0.946680249356 0.00223545798716 0.0
0.946752479567 0.00127646733289 0.0
0.827725179177 -0.0139968241354 0.0
0.566097423408 -0.0277715244212 0.0
0.946260500763 0.00154084852658 0.0
0.945153383561 0.00146776717985 0.0
0.945142196084 0.00116738005853 0.0
0.945163633657 0.000975919438697 0.0
0.945309273813 0.00105530594288 0.0
0.940665173681 0.00196009514576 0.0
0.326443797101 0.0176127499647 0.0
0.324155682893 0.0179199492964 0.0
0.323304301445 0.0178162980308 0.0
0.323239353409 0.0178603523622 0.0
0.323790210485 0.0179737989533 0.0
0.32426797931 0.0180015858568 0.0
0.327947223448 0.0182942486127 0.0
0.327698889273 0.0182958731422 0.0
0.327723505589 0.0183189285744 0.0
0.327824316139 0.0183457039547 0.0
0.328348489706 0.018364155545 0.0
0.328534149817 0.0183652485905 0.0
0.328531265787 0.0184370325994 0.0