# vtk DataFile Version 2.0
2D Simulation Python
ASCII
DATASET UNSTRUCTURED_GRID
FIELD FieldData 1
NODES 1 2 int
1869 3447

POINTS 1869 double
0.0 1.0 0.0
0.0 3.0 0.0
40.0 3.0 0.0
40.0 0.0 0.0
4.0 0.0 0.0
4.0 1.0 0.0
0.0 1.285714285716665 0.0
0.0 1.571428571430556 0.0
0.0 1.857142857144446 0.0
0.0 2.142857142858336 0.0
0.0 2.428571428572225 0.0
0.0 2.714285714286111 0.0
0.2985074626863422 3.0 0.0
0.5970149253727002 3.0 0.0
0.8955223880590588 3.0 0.0
1.194029850745382 3.0 0.0
1.492537313431632 3.0 0.0
1.791044776117834 3.0 0.0
2.089552238804087 3.0 0.0
2.388059701490418 3.0 0.0
2.686567164176777 3.0 0.0
2.985074626863136 3.0 0.0
3.283582089549494 3.0 0.0
3.582089552235852 3.0 0.0
3.880597014922211 3.0 0.0
4.179104477608569 3.0 0.0
4.477611940294928 3.0 0.0
4.776119402981237 3.0 0.0
5.074626865667346 3.0 0.0
5.373134328353175 3.0 0.0
5.671641791038871 3.0 0.0
5.970149253724567 3.0 0.0
6.268656716410264 3.0 0.0
6.56716417909596 3.0 0.0
6.865671641781655 3.0 0.0
7.164179104467352 3.0 0.0
7.462686567153049 3.0 0.0
7.761194029838745 3.0 0.0
8.05970149252444 3.0 0.0
8.358208955210136 3.0 0.0
8.656716417895833 3.0 0.0
8.95522388058153 3.0 0.0
9.253731343267225 3.0 0.0
9.552238805952921 3.0 0.0
9.850746268638618 3.0 0.0
10.14925373132431 3.0 0.0
10.44776119401001 3.0 0.0
10.7462686566957 3.0 0.0
11.0447761193814 3.0 0.0
11.34328358206709 3.0 0.0
11.64179104475279 3.0 0.0
11.94029850743848 3.0 0.0
12.23880597012418 3.0 0.0
12.53731343280987 3.0 0.0
12.83582089549557 3.0 0.0
13.13432835818127 3.0 0.0
13.43283582086696 3.0 0.0
13.73134328355265 3.0 0.0
14.02985074623835 3.0 0.0
14.32835820892405 3.0 0.0
14.62686567160974 3.0 0.0
14.92537313429544 3.0 0.0
15.22388059698113 3.0 0.0
15.52238805966683 3.0 0.0
15.82089552235252 3.0 0.0
16.11940298503862 3.0 0.0
16.41791044772535 3.0 0.0
16.71641791041237 3.0 0.0
17.01492537309939 3.0 0.0
17.31343283578641 3.0 0.0
17.61194029847344 3.0 0.0
17.91044776116046 3.0 0.0
18.20895522384748 3.0 0.0
18.5074626865345 3.0 0.0
18.80597014922152 3.0 0.0
19.10447761190854 3.0 0.0
19.40298507459556 3.0 0.0
19.70149253728258 3.0 0.0
19.9999999999696 3.0 0.0
20.29850746265662 3.0 0.0
20.59701492534364 3.0 0.0
20.89552238803066 3.0 0.0
21.19402985071768 3.0 0.0
21.49253731340471 3.0 0.0
21.79104477609173 3.0 0.0
22.08955223877875 3.0 0.0
22.38805970146577 3.0 0.0
22.68656716415279 3.0 0.0
22.98507462683981 3.0 0.0
23.28358208952683 3.0 0.0
23.58208955221385 3.0 0.0
23.88059701490088 3.0 0.0
24.1791044775879 3.0 0.0
24.47761194027491 3.0 0.0
24.77611940296193 3.0 0.0
25.07462686564896 3.0 0.0
25.37313432833598 3.0 0.0
25.671641791023 3.0 0.0
25.97014925371002 3.0 0.0
26.26865671639704 3.0 0.0
26.56716417908406 3.0 0.0
26.86567164177108 3.0 0.0
27.1641791044581 3.0 0.0
27.46268656714512 3.0 0.0
27.76119402983214 3.0 0.0
28.05970149251916 3.0 0.0
28.35820895520619 3.0 0.0
28.65671641789321 3.0 0.0
28.95522388058023 3.0 0.0
29.25373134326725 3.0 0.0
29.55223880595426 3.0 0.0
29.85074626864129 3.0 0.0
30.14925373132831 3.0 0.0
30.44776119401533 3.0 0.0
30.74626865670236 3.0 0.0
31.04477611938937 3.0 0.0
31.34328358207639 3.0 0.0
31.64179104476341 3.0 0.0
31.94029850745043 3.0 0.0
32.23880597013746 3.0 0.0
32.53731343282448 3.0 0.0
32.8358208955115 3.0 0.0
33.13432835819852 3.0 0.0
33.43283582088554 3.0 0.0
33.73134328357256 3.0 0.0
34.02985074625958 3.0 0.0
34.3283582089466 3.0 0.0
34.62686567163362 3.0 0.0
34.92537313432064 3.0 0.0
35.22388059700766 3.0 0.0
35.52238805969468 3.0 0.0
35.8208955223817 3.0 0.0
36.11940298506872 3.0 0.0
36.41791044775574 3.0 0.0
36.71641791044276 3.0 0.0
37.01492537312978 3.0 0.0
37.31343283581681 3.0 0.0
37.61194029850382 3.0 0.0
37.91044776119085 3.0 0.0
38.20895522387787 3.0 0.0
38.5074626865649 3.0 0.0
38.80597014925192 3.0 0.0
39.10447761193894 3.0 0.0
39.40298507462596 3.0 0.0
39.70149253731298 3.0 0.0
40.0 2.700000000001935 0.0
40.0 2.400000000003002 0.0
40.0 2.100000000002161 0.0
40.0 1.800000000002828 0.0
40.0 1.500000000004164 0.0
40.0 1.200000000003365 0.0
40.0 0.9000000000025241 0.0
40.0 0.6000000000016827 0.0
40.0 0.3000000000008414 0.0
39.70000000000115 0.0 0.0
39.40000000000229 0.0 0.0
39.10000000000343 0.0 0.0
38.80000000000458 0.0 0.0
38.50000000000572 0.0 0.0
38.20000000000687 0.0 0.0
37.90000000000801 0.0 0.0
37.60000000000915 0.0 0.0
37.3000000000103 0.0 0.0
37.00000000001144 0.0 0.0
36.70000000001259 0.0 0.0
36.40000000001373 0.0 0.0
36.10000000001487 0.0 0.0
35.80000000001602 0.0 0.0
35.50000000001717 0.0 0.0
35.20000000001831 0.0 0.0
34.90000000001945 0.0 0.0
34.6000000000206 0.0 0.0
34.30000000002174 0.0 0.0
34.00000000002289 0.0 0.0
33.70000000002403 0.0 0.0
33.40000000002517 0.0 0.0
33.10000000002632 0.0 0.0
32.80000000002747 0.0 0.0
32.50000000002861 0.0 0.0
32.20000000002975 0.0 0.0
31.9000000000309 0.0 0.0
31.60000000003204 0.0 0.0
31.30000000003319 0.0 0.0
31.00000000003433 0.0 0.0
30.70000000003548 0.0 0.0
30.40000000003662 0.0 0.0
30.10000000003777 0.0 0.0
29.80000000003891 0.0 0.0
29.50000000004005 0.0 0.0
29.2000000000412 0.0 0.0
28.90000000004234 0.0 0.0
28.60000000004348 0.0 0.0
28.30000000004463 0.0 0.0
28.00000000004577 0.0 0.0
27.70000000004692 0.0 0.0
27.40000000004806 0.0 0.0
27.1000000000492 0.0 0.0
26.80000000005035 0.0 0.0
26.50000000005149 0.0 0.0
26.20000000005263 0.0 0.0
25.90000000005378 0.0 0.0
25.60000000005492 0.0 0.0
25.30000000005606 0.0 0.0
25.00000000005721 0.0 0.0
24.70000000005835 0.0 0.0
24.40000000005949 0.0 0.0
24.10000000006064 0.0 0.0
23.80000000006178 0.0 0.0
23.50000000006293 0.0 0.0
23.20000000006407 0.0 0.0
22.90000000006521 0.0 0.0
22.60000000006636 0.0 0.0
22.3000000000675 0.0 0.0
22.00000000006795 0.0 0.0
21.70000000006683 0.0 0.0
21.40000000006501 0.0 0.0
21.1000000000632 0.0 0.0
20.80000000006138 0.0 0.0
20.50000000005956 0.0 0.0
20.20000000005775 0.0 0.0
19.90000000005593 0.0 0.0
19.60000000005412 0.0 0.0
19.3000000000523 0.0 0.0
19.00000000005049 0.0 0.0
18.70000000004867 0.0 0.0
18.40000000004686 0.0 0.0
18.10000000004504 0.0 0.0
17.80000000004323 0.0 0.0
17.50000000004141 0.0 0.0
17.2000000000396 0.0 0.0
16.90000000003779 0.0 0.0
16.60000000003597 0.0 0.0
16.30000000003416 0.0 0.0
16.00000000003234 0.0 0.0
15.70000000003053 0.0 0.0
15.40000000002871 0.0 0.0
15.1000000000269 0.0 0.0
14.80000000002508 0.0 0.0
14.50000000002327 0.0 0.0
14.20000000002145 0.0 0.0
13.90000000001964 0.0 0.0
13.60000000001783 0.0 0.0
13.30000000001601 0.0 0.0
13.0000000000142 0.0 0.0
12.70000000001238 0.0 0.0
12.40000000001056 0.0 0.0
12.10000000000875 0.0 0.0
11.80000000000694 0.0 0.0
11.50000000000512 0.0 0.0
11.20000000000331 0.0 0.0
10.90000000000149 0.0 0.0
10.59999999999968 0.0 0.0
10.29999999999787 0.0 0.0
9.99999999999605 0.0 0.0
9.699999999994237 0.0 0.0
9.399999999992424 0.0 0.0
9.099999999990604 0.0 0.0
8.799999999988792 0.0 0.0
8.499999999986976 0.0 0.0
8.199999999985256 0.0 0.0
7.899999999985106 0.0 0.0
7.599999999986252 0.0 0.0
7.299999999987392 0.0 0.0
6.999999999988546 0.0 0.0
6.699999999989686 0.0 0.0
6.399999999990833 0.0 0.0
6.099999999991979 0.0 0.0
5.799999999993126 0.0 0.0
5.499999999994273 0.0 0.0
5.199999999995413 0.0 0.0
4.899999999996567 0.0 0.0
4.599999999997706 0.0 0.0
4.299999999998853 0.0 0.0
4.0 0.2499999999994109 0.0
4.0 0.4999999999986918 0.0
4.0 0.7499999999993401 0.0
3.714285714284526 1.0 0.0
3.428571428569844 1.0 0.0
3.142857142857542 1.0 0.0
2.85714285714524 1.0 0.0
2.571428571432937 1.0 0.0
2.285714285720635 1.0 0.0
2.000000000008246 1.0 0.0
1.714285714292858 1.0 0.0
1.428571428577383 1.0 0.0
1.142857142861906 1.0 0.0
0.8571428571464295 1.0 0.0
0.5714285714309533 1.0 0.0
0.2857142857154762 1.0 0.0
5.440895737063815 1.5321810752057226 0.0
38.359631109480205 1.5447862624578594 0.0
36.55156595862513 1.5678345293898692 0.0
34.78710000302187 1.5642234316343742 0.0
32.9971954225337 1.5616773154845147 0.0
31.206213093159832 1.5616241273381726 0.0
29.41743466562333 1.560813469344192 0.0
27.626772764562254 1.5595442904607533 0.0
25.8345099987122 1.5596010883176028 0.0
24.038234267385175 1.5598722611419031 0.0
22.28410800461182 1.5615988969890857 0.0
20.49887470353422 1.5590348043573192 0.0
18.706375623998746 1.5616894963191854 0.0
16.914750360834766 1.563910776410858 0.0
15.128618847375977 1.5556246456016476 0.0
13.33374344126039 1.5511890511266595 0.0
7.030759682398678 1.534442092687481 0.0
11.566049076409328 1.4969212260342677 0.0
8.761848711004971 1.5139156602083867 0.0
10.122611928795317 1.6236584616968261 0.0
4.526369532015368 1.9188661001514808 0.0
3.5185905812745153 2.0252610404151303 0.0
0.8929602934338949 2.0484837616277805 0.0
2.1303862954741786 2.0128365285831764 0.0
37.45664389250272 1.9215745158530688 0.0
35.76980667423149 1.9566969156967804 0.0
33.97560565425424 1.951129826056218 0.0
32.18468257484926 1.9502423738014634 0.0
30.393953542480887 1.9506962134922115 0.0
28.603869422410817 1.9490708688174188 0.0
26.81243432007293 1.9489436858605451 0.0
25.020320832831715 1.9489079511655873 0.0
23.222921081222125 1.9532226644536412 0.0
21.438577064798203 1.9510574224417399 0.0
19.648320628121976 1.9527003755547225 0.0
17.85646983812719 1.9551347438424853 0.0
16.066386904528457 1.9524591667910451 0.0
14.276194644033797 1.949504085905422 0.0
12.469240233774332 1.9331189870611798 0.0
7.903765740008337 1.9170293474259146 0.0
32.11693620250729 1.0153772846462719 0.0
33.9052719667752 1.018314117442152 0.0
30.327339895719167 1.0165516066818012 0.0
35.685997274784626 1.0240920134690144 0.0
37.47826336526687 0.9143900830224962 0.0
28.544382306259507 1.008832531079308 0.0
26.750770900913658 1.008697819364698 0.0
24.956031422002802 1.0087920104531238 0.0
23.15163741793711 1.0082816543559 0.0
21.376334792735403 0.9954454147104485 0.0
19.585082890394872 1.0071215101888775 0.0
17.79121251690518 1.0187009575384915 0.0
16.01281168302144 1.0009471538479193 0.0
14.223190832776599 0.9947506625384457 0.0
12.435116110262122 0.9533072381305729 0.0
7.904118015944833 0.9516540425309552 0.0
6.260075186818547 0.9882083828748837 0.0
6.226199612153765 2.037271304307933 0.0
4.831970914683074 0.828771924662698 0.0
[...]
POINT_DATA 1869
VECTORS vector double
0.0 0.0 0.0
0.0 0.0 0.0
0.0 0.0 0.0
0.0 0.0 0.0
0.0 0.0 0.0
0.0 0.0 0.0
0.734693877556 0.0 0.0
1.22448979592 0.0 0.0
1.4693877551 0.0 0.0
1.4693877551 0.0 0.0
1.22448979592 0.0 0.0
0.73469387755 0.0 0.0
0.0 0.0 0.0
0.0 0.0 0.0
0.0 0.0 0.0
0.0 0.0 0.0
0.0 0.0 0.0
0.0 0.0 0.0
0.0 0.0 0.0
0.0 0.0 0.0
0.0 0.0 0.0
0.0 0.0 0.0
0.0 0.0 0.0
0.0 0.0 0.0
0.0 0.0 0.0
0.0 0.0 0.0
0.0 0.0 0.0
0.0 0.0 0.0
0.0 0.0 0.0
0.0 0.0 0.0
0.0 0.0 0.0
0.0 0.0 0.0
0.0 0.0 0.0
0.0 0.0 0.0
0.0 0.0 0.0
0.0 0.0 0.0
0.0 0.0 0.0
0.0 0.0 0.0
0.0 0.0 0.0
0.0 0.0 0.0
0.0 0.0 0.0
0.0 0.0 0.0
0.0 0.0 0.0
0.0 0.0 0.0
0.0 0.0 0.0
0.0 0.0 0.0
0.0 0.0 0.0
0.0 0.0 0.0
0.0 0.0 0.0
0.0 0.0 0.0
0.0 0.0 0.0
0.0 0.0 0.0
0.0 0.0 0.0
0.0 0.0 0.0
0.0 0.0 0.0
0.0 0.0 0.0
0.0 0.0 0.0
0.0 0.0 0.0
0.0 0.0 0.0
0.0 0.0 0.0
0.0 0.0 0.0
0.0 0.0 0.0
0.0 0.0 0.0
0.0 0.0 0.0
0.0 0.0 0.0
0.0 0.0 0.0
0.0 0.0 0.0
0.0 0.0 0.0
0.0 0.0 0.0
0.0 0.0 0.0
0.0 0.0 0.0
0.0 0.0 0.0
0.0 0.0 0.0
0.0 0.0 0.0
0.0 0.0 0.0
0.0 0.0 0.0
0.0 0.0 0.0
0.0 0.0 0.0
0.0 0.0 0.0
0.0 0.0 0.0
0.0 0.0 0.0
0.0 0.0 0.0
0.0 0.0 0.0
0.0 0.0 0.0
0.0 0.0 0.0
0.0 0.0 0.0
0.0 0.0 0.0
0.0 0.0 0.0
0.0 0.0 0.0
0.0 0.0 0.0
0.0 0.0 0.0
0.0 0.0 0.0
0.0 0.0 0.0
0.0 0.0 0.0
0.0 0.0 0.0
0.0 0.0 0.0
0.0 0.0 0.0
0.0 0.0 0.0
0.0 0.0 0.0
0.0 0.0 0.0
0.0 0.0 0.0
0.0 0.0 0.0
0.0 0.0 0.0
0.0 0.0 0.0
0.0 0.0 0.0
0.0 0.0 0.0
0.0 0.0 0.0
0.0 0.0 0.0
0.0 0.0 0.0
0.0 0.0 0.0
0.0 0.0 0.0
0.0 0.0 0.0
0.0 0.0 0.0
0.0 0.0 0.0
0.0 0.0 0.0
0.0 0.0 0.0
0.0 0.0 0.0
0.0 0.0 0.0
0.0 0.0 0.0
0.0 0.0 0.0
0.0 0.0 0.0
0.0 0.0 0.0
0.0 0.0 0.0
0.0 0.0 0.0
0.0 0.0 0.0
0.0 0.0 0.0
0.0 0.0 0.0
0.0 0.0 0.0
0.0 0.0 0.0
0.0 0.0 0.0
0.0 0.0 0.0
0.0 0.0 0.0
0.0 0.0 0.0
0.0 0.0 0.0
0.0 0.0 0.0
0.0 0.0 0.0
0.0 0.0 0.0
0.0 0.0 0.0
0.0 0.0 0.0
0.0 0.0 0.0
0.0 0.0 0.0
0.0 0.0 0.0
0.0 0.0 0.0
0.0 0.0 0.0
0.0 0.0 0.0
0.342807034879 0.0191979652025 0.0
0.614702685882 0.00644481312688 0.0
0.838054491309 0.00913210300207 0.0
0.983700858371 0.00289369061306 0.0
1.03210395412 3.25064063955e-05 0.0
0.981033685929 -0.00235910095085 0.0
0.842143503411 -0.0102582111146 0.0
0.625620700257 -0.00506910132716 0.0
0.344542918866 -0.0184561472992 0.0
0.0 0.0 0.0
0.0 0.0 0.0
0.0 0.0 0.0
0.0 0.0 0.0
0.0 0.0 0.0
0.0 0.0 0.0
0.0 0.0 0.0
0.0 0.0 0.0
0.0 0.0 0.0
0.0 0.0 0.0
0.0 0.0 0.0
0.0 0.0 0.0
0.0 0.0 0.0
0.0 0.0 0.0
0.0 0.0 0.0
0.0 0.0 0.0
0.0 0.0 0.0
0.0 0.0 0.0
0.0 0.0 0.0
0.0 0.0 0.0
0.0 0.0 0.0
0.0 0.0 0.0
0.0 0.0 0.0
0.0 0.0 0.0
0.0 0.0 0.0
0.0 0.0 0.0
0.0 0.0 0.0
0.0 0.0 0.0
0.0 0.0 0.0
0.0 0.0 0.0
0.0 0.0 0.0
0.0 0.0 0.0
0.0 0.0 0.0
0.0 0.0 0.0
0.0 0.0 0.0
0.0 0.0 0.0
0.0 0.0 0.0
0.0 0.0 0.0
0.0 0.0 0.0
0.0 0.0 0.0
0.0 0.0 0.0
0.0 0.0 0.0
0.0 0.0 0.0
0.0 0.0 0.0
0.0 0.0 0.0
0.0 0.0 0.0
0.0 0.0 0.0
0.0 0.0 0.0
0.0 0.0 0.0
0.0 0.0 0.0
0.0 0.0 0.0
0.0 0.0 0.0
0.0 0.0 0.0
0.0 0.0 0.0
0.0 0.0 0.0
0.0 0.0 0.0
0.0 0.0 0.0
0.0 0.0 0.0
0.0 0.0 0.0
0.0 0.0 0.0
0.0 0.0 0.0
0.0 0.0 0.0
0.0 0.0 0.0
0.0 0.0 0.0
0.0 0.0 0.0
0.0 0.0 0.0
0.0 0.0 0.0
0.0 0.0 0.0
0.0 0.0 0.0
0.0 0.0 0.0
0.0 0.0 0.0
0.0 0.0 0.0
0.0 0.0 0.0
0.0 0.0 0.0
0.0 0.0 0.0
0.0 0.0 0.0
0.0 0.0 0.0
0.0 0.0 0.0
0.0 0.0 0.0
0.0 0.0 0.0
0.0 0.0 0.0
0.0 0.0 0.0
0.0 0.0 0.0
0.0 0.0 0.0
0.0 0.0 0.0
0.0 0.0 0.0
0.0 0.0 0.0
0.0 0.0 0.0
0.0 0.0 0.0
0.0 0.0 0.0
0.0 0.0 0.0
0.0 0.0 0.0
0.0 0.0 0.0
0.0 0.0 0.0
0.0 0.0 0.0
0.0 0.0 0.0
0.0 0.0 0.0
0.0 0.0 0.0
0.0 0.0 0.0
0.0 0.0 0.0
0.0 0.0 0.0
0.0 0.0 0.0
0.0 0.0 0.0
0.0 0.0 0.0
0.0 0.0 0.0
0.0 0.0 0.0
0.0 0.0 0.0
0.0 0.0 0.0
0.0 0.0 0.0
0.0 0.0 0.0
0.0 0.0 0.0
0.0 0.0 0.0
0.0 0.0 0.0
0.0 0.0 0.0
0.0 0.0 0.0
0.0 0.0 0.0
0.0 0.0 0.0
0.0 0.0 0.0
0.0 0.0 0.0
0.0 0.0 0.0
0.0 0.0 0.0
0.0 0.0 0.0
0.0 0.0 0.0
0.0 0.0 0.0
0.0 0.0 0.0
0.0 0.0 0.0
0.0 0.0 0.0
0.0 0.0 0.0
0.0 0.0 0.0
0.0 0.0 0.0
0.0 0.0 0.0
0.0 0.0 0.0
0.0 0.0 0.0
0.0 0.0 0.0
0.0 0.0 0.0
1.11971039782 -0.230029883881 0.0
0.990463293683 -0.000788486665551 0.0
0.984942504895 0.0016295852694 0.0
0.987877260036 0.000688146354114 0.0
0.987795461883 -0.00017465311593 0.0
0.98749468444 0.00015843083518 0.0
0.986226861101 -8.42949706031e-06 0.0
0.986149396502 -0.000380120594806 0.0
0.986138610702 -0.000596015931208 0.0
0.986149668981 -0.000304217417978 0.0
0.986238689552 0.00161313144713 0.0
0.984973223702 0.00093055219013 0.0
0.985060695 -0.00015699621289 0.0
0.986091304267 -0.000193277491545 0.0
0.987051703707 -2.15821749035e-05 0.0
0.986749163007 -0.00324973050453 0.0
1.01184682946 -0.0611853136253 0.0
0.985902833613 0.00135013212702 0.0
0.988166015428 0.00846339580347 0.0
0.977928939249 0.00808851767662 0.0
1.34146163366 -0.180271089867 0.0
1.46785177045 -0.0822434584348 0.0
1.48750064759 0.00268469451399 0.0
1.47823852835 -0.0113365519859 0.0
0.917532618549 -0.00296829445389 0.0
0.903787428904 0.00586604604589 0.0
0.905456477346 0.00313811483245 0.0
0.905365292335 0.00294309891832 0.0
0.904251161208 0.00324677440629 0.0
0.90411495834 0.00290225315694 0.0
0.904066184066 0.00271197560888 0.0
0.904257248596 0.00260413492483 0.0
0.90250538856 0.0031588206529 0.0
0.901366708849 0.00338347158119 0.0
0.89985516749 0.00265483822686 0.0
0.899831393928 0.00219989278587 0.0
0.901933038408 0.00250042230475 0.0
0.903937296718 0.0012744599326 0.0
0.911663354273 -0.00204745155194 0.0
0.912606328978 -0.000263719896591 0.0
0.895513285448 0.000534689978282 0.0
0.896284571525 0.000665676713193 0.0
0.896234159347 0.00171771397823 0.0
0.89696564347 0.00117426197975 0.0
0.843447029991 -0.00253504627655 0.0
0.893158487904 0.000559374436895 0.0
0.8931833573 0.000352516137496 0.0
0.893045823565 0.000246430938893 0.0
0.893054177842 0.00155183805417 0.0
0.884466051814 0.00273903448176 0.0
0.889344689916 0.000999140448893 0.0
0.896529071266 -0.000999700834826 0.0
0.890343814138 0.000513125470906 0.0
0.886447480628 -0.000330766427233 0.0
0.861824871471 -0.00275813464967 0.0
0.8736676763 -0.00832189909553 0.0
0.812323994742 -0.131213619027 0.0
0.97392265752 -0.0853789289565 0.0
0.383935449562 -0.157505534498 0.0
0.85680605549 0.000949392653762 0.0
0.869200236897 0.0104230737523 0.0
0.836488911645 -0.00752875064911 0.0
0.842581649578 0.00483108489662 0.0
0.849199894395 -0.00299646892654 0.0
0.793524046991 0.0120193963721 0.0
0.989540269494 -0.101556183824 0.0
0.754929883877 -0.0307858724081 0.0
0.743633770529 -0.00874493719204 0.0
0.743450737227 -0.00733841082404 0.0
0.766372460779 -0.00539742766957 0.0
0.758624326537 -0.00752278932748 0.0
0.75728175542 -0.0062745489809 0.0
0.755207538925 -0.00248909367157 0.0
0.756936618761 -0.00405182254758 0.0
0.756799345061 -0.00423462386751 0.0
0.756940104996 -0.004097932026 0.0
0.757286975519 -0.00385874559474 0.0
0.760575564535 -0.000264429955938 0.0
0.759794823653 -0.000671320014404 0.0
0.797982464562 -0.0033741132876 0.0
0.761524899476 0.000415334933237 0.0
0.764965170044 0.00767704356068 0.0
0.74382198502 -0.00235223237697 0.0
0.747387588142 -0.00638764214891 0.0
0.803251663391 0.00139065248964 0.0
0.739838230198 0.00546224505748 0.0
0.740107367851 0.00477594107658 0.0
0.739610142212 0.00485522317546 0.0
0.73861344351 0.00488136952728 0.0
0.791387474514 0.00576948944593 0.0
0.738560999797 0.0047176765439 0.0
0.738599703527 0.0046008569974 0.0
0.738853648748 0.00465282305652 0.0
0.731304858068 0.00515632198618 0.0
0.730439737759 0.00501032885012 0.0
0.729742301275 0.0045833535728 0.0
0.730107921025 0.00453335404429 0.0
0.732170168396 0.00461799796004 0.0
0.736967179313 0.002405818599 0.0
0.773520628202 -0.0190759163944 0.0
0.7081455032 0.000435457281267 0.0
0.705356700728 0.00151894164929 0.0
1.40655860705 -0.0317619386189 0.0
0.425757237526 -0.130287869629 0.0
1.22463704368 -0.0209853090703 0.0
0.741465261947 0.000862303434331 0.0
1.18341953572 0.0101923768589 0.0
1.35921178568 -0.147424916959 0.0
0.691050032776 0.00454215883476 0.0
1.32767871955 -0.0191765096361 0.0
1.02770860852 -0.285160331418 0.0
1.07922072877 -0.0575026288291 0.0
1.00558909543 -0.00288711128548 0.0
0.664968644879 -0.0111074678936 0.0
0.655662027051 -0.00781950601716 0.0
0.653712696691 -0.00755605383015 0.0
0.6526359129 -0.00754613519257 0.0
0.653012049842 -0.00727905370276 0.0
0.654260893092 -0.00710459764051 0.0
0.656458648815 -0.00720190405935 0.0
0.657355763138 -0.00745499159047 0.0
0.6571921276 -0.00736256509583 0.0
0.657305160184 -0.0072568643581 0.0
0.657751859206 -0.0071478030132 0.0
0.658537719664 -0.00728431849225 0.0
0.658703687937 -0.00703211960044 0.0
0.64215689654 0.0058228583184 0.0
0.662993082211 0.00136254713042 0.0
0.986860961454 0.00376141355639 0.0
0.98500407288 0.00926533893522 0.0
0.667767771971 -0.0142768407719 0.0
0.670892899367 -0.0127654047368 0.0
0.669460377601 -0.0151924373488 0.0
0.680533770651 -0.0168305412391 0.0
1.15281962333 0.0195225220069 0.0
0.677264708763 -0.0159215986194 0.0
0.684064447991 0.00134820119756 0.0
0.690328655297 0.000406678416711 0.0
0.690460912629 0.000421629237305 0.0
0.69045895364 0.000559898897619 0.0
0.687734531704 -0.0010134668559 0.0
0.692064647169 0.001007932263 0.0
0.688704279973 -0.00154025102253 0.0
0.688712420811 -0.00170525506089 0.0
1.13998861555 -0.00696882330112 0.0
0.756975015935 -0.0465657174551 0.0
0.991220220661 -0.00152178135563 0.0
0.991260317254 -0.0011407161546 0.0
0.990691160679 -0.00093717790325 0.0
0.990041543492 -0.0016481564639 0.0
0.989344126198 0.000207389547396 0.0
0.989993900626 -0.00191412327682 0.0
0.989974563999 -0.0020783515972 0.0
0.989961024117 -0.00130554200031 0.0
0.988270560531 -0.000575743541795 0.0
0.987291060091 -0.00159140538192 0.0
0.98808749376 -0.00245804355024 0.0
0.989519908009 -0.00223232869509 0.0
0.989402003285 -0.00300907325027 0.0
0.987334545909 -0.00601560515174 0.0
0.996814597149 -0.0166009150942 0.0
0.987815057555 -0.00610481030248 0.0
0.987499835304 0.000396345547013 0.0
1.04999368986 -0.171011214004 0.0
0.546552825292 -0.029690813599 0.0
0.991186446525 0.00123084045513 0.0
0.991080798915 0.00124205012598 0.0
0.990037559762 0.00173151901765 0.0
0.990775920246 0.00252208549706 0.0
0.989756807331 0.00117321231434 0.0
0.989733849991 0.000939108864571 0.0
0.989737273898 0.000895138829269 0.0
0.990044078622 0.00127048012143 0.0
0.988426116862 0.00103997290508 0.0
0.988052754845 -0.000210447724769 0.0
0.588764526905 -0.0257876349629 0.0
0.989205648321 -0.000680236910849 0.0
0.990293381169 -3.70882927508e-05 0.0
0.99006691642 -0.00211943445988 0.0
0.986075556023 -0.00179833414525 0.0
0.992846996549 0.000332134845928 0.0
0.840072967943 -0.0711943487887 0.0
1.18851349678 -0.26384134942 0.0
0.564026612122 0.000192266759712 0.0
0.584314981088 0.00521316998031 0.0
1.19171209563 -0.0376236707804 0.0
0.0102421678661 -0.0194787999142 0.0
0.548964906504 -0.00595557756813 0.0
0.57653866521 -0.00376344158193 0.0
0.594470570095 0.00809657054252 0.0
0.56436444133 0.00982069105744 0.0
1.05679709978 -0.0134837011328 0.0
0.540591503744 -0.000305040175592 0.0
0.565486471901 -0.00251852451955 0.0
0.541537898602 -0.000426962536378 0.0
0.612858771496 -0.00581454608238 0.0
0.617751261067 0.00489896576443 0.0
0.587906095514 -0.00303822525174 0.0
0.619537774223 0.00362455003372 0.0
0.61929888223 0.00357987708821 0.0
0.618330130925 0.00367714970496 0.0
0.618229938903 0.00354430053156 0.0
0.618170970594 0.00346644264462 0.0
0.618489182606 0.00344420975156 0.0
0.613293991515 0.00383814256965 0.0
0.612693034596 0.00381645596114 0.0
0.611580477628 0.00355000123149 0.0
0.611426318607 0.00342365385125 0.0
0.613060667983 0.00351480297008 0.0
0.615711564443 0.00268876626542 0.0
0.577198025632 0.00352826083676 0.0
0.628161726909 -0.00371298953333 0.0
0.541742223406 -0.000354744553996 0.0
0.594261307869 0.00263334321317 0.0
0.540918878392 0.00622748603129 0.0
0.541708720705 -0.00024885451715 0.0
0.535731837905 0.00667412769973 0.0
1.18650355107 -0.00910961721743 0.0
0.549784954234 0.00369944531927 0.0
0.552503544945 -0.00796759576561 0.0
0.547512961956 -0.000133042738822 0.0
0.547649249385 0.00282779090521 0.0
0.549659322393 0.00398936591416 0.0
0.555151845117 0.00406478196038 0.0
0.500669557712 -0.00309882935211 0.0
1.07588729389 -0.00527469191227 0.0
1.09000905084 0.0153297240819 0.0
1.01477293263 -0.114136360619 0.0
0.931075894392 0.00282780938954 0.0
0.547579328206 -0.00139627888591 0.0
0.531650921808 0.0017043728969 0.0
1.03942427581 -0.0276441756428 0.0
0.579469646621 0.00288814914788 0.0
0.957086928577 -0.0611400453 0.0
0.581841865 -0.00162681153531 0.0
0.991368383144 -0.00539682788492 0.0
0.418503265913 -0.0768368101667 0.0
0.548887818907 0.00363305699912 0.0
0.575910222334 0.00221108784364 0.0
0.578753379622 0.00341695848802 0.0
0.922661536585 0.000822635503987 0.0
0.91203814799 0.000981464310434 0.0
0.928618377115 0.00917045886622 0.0
1.08971989959 -0.137657219099 0.0
0.909472081813 0.00295805279906 0.0
0.911809235591 -0.00168111180807 0.0
0.911835384376 -0.00224645858528 0.0
0.911089121554 -0.00196834697337 0.0
0.910380548495 -0.00218056954917 0.0
0.910338940668 -0.00241295881015 0.0
0.910427412029 -0.00257865505013 0.0
0.91019762915 -0.00223651903783 0.0
0.907874212875 -0.00174515842616 0.0
0.906510746939 -0.00228501759943 0.0
0.906314357444 -0.00297920491511 0.0
0.907571338023 -0.00288633442512 0.0
0.909726860751 -0.0031677250819 0.0
0.914160582468 -0.00659257938485 0.0
0.912880075429 -0.00503174701851 0.0
0.915891793181 -0.00264034801016 0.0
0.919851797549 -0.00299164480059 0.0
0.917682124939 -0.00334386554333 0.0
0.916368822567 -0.00217196585898 0.0
0.920025339144 -0.000647290588345 0.0
0.929019833997 -0.00191224328742 0.0
0.931264130691 -0.00120594649386 0.0
0.929123997401 -0.00201750173133 0.0
0.930812151573 -0.00203641311679 0.0
0.929195114468 -0.0018194956642 0.0
0.930804013805 -0.00178560842768 0.0
0.930028950873 -0.00123920140714 0.0
0.137305324389 -0.068192889316 0.0
0.908747261013 -0.0002431292279 0.0
0.91702951702 -0.00818498598285 0.0
0.927926435529 0.00968436117333 0.0
0.889791412048 -0.077873588979 0.0
0.51919367225 -0.00176559382838 0.0
0.508652207459 0.00536442701714 0.0
0.312060503051 -0.160711900855 0.0
0.892848196741 -0.00552671026771 0.0
0.885418280727 0.0116321078826 0.0
0.903533161235 0.000180205453482 0.0
0.597446320876 -0.00204212783503 0.0
0.70283110585 -0.205810658171 0.0
0.88590905828 0.00277841704427 0.0
0.552362336955 -0.0133471540319 0.0
0.820685255145 -0.199960205863 0.0
1.48553028799 0.00794106676939 0.0
1.03697516546 0.000899994939036 0.0
0.902209074078 0.00726808768512 0.0
0.94285880816 0.00217769887778 0.0
0.928238995729 0.00293019001868 0.0
0.93555845401 -0.0202494353123 0.0
0.923705564501 -0.00385263238886 0.0
1.46536673647 -0.0141680709165 0.0
0.990052355404 0.0001526289368 0.0
0.928349080694 0.00269051703545 0.0
0.914884441963 -0.00170535287535 0.0
0.914587190658 -0.00168162985868 0.0
0.914224849072 -0.000192253498451 0.0
0.913315443881 -0.00146464724796 0.0
0.913329099585 -0.0018148809655 0.0
0.941617410392 0.00889481108071 0.0
0.913315588922 -0.00200143528103 0.0
0.913521859676 -0.00198457446845 0.0
0.904847309709 -0.000712738271406 0.0
0.904050693047 -0.00082867470317 0.0
0.903115610358 -0.00162074650764 0.0
0.903429927614 -0.00186102329058 0.0
0.905730118591 -0.00158725890375 0.0
0.908040513843 -0.00373007276853 0.0
0.901386277063 -0.00313718005631 0.0
0.884561354357 0.00787005559283 0.0
0.949696325265 -0.0049768518078 0.0
0.950375937255 -0.0392546559821 0.0
0.944044748712 -0.00621986795779 0.0
0.948200525461 -0.00329172073251 0.0
0.952052628757 -0.0034167684706 0.0
0.950770449071 -0.00326951735721 0.0
0.949658689137 -0.0020494569312 0.0
0.949859548327 -0.0008420153428 0.0
0.953304563455 -0.000434039451672 0.0
0.953829527566 -0.00115746236811 0.0
0.953348323375 -0.00187220474837 0.0
0.951336911616 -0.00245551683352 0.0
0.953549526074 -0.00127179673324 0.0
0.951216083446 -0.00288733746604 0.0
0.951487554669 -0.00234957427478 0.0
0.95131550503 -0.00269616711893 0.0
0.427929456478 0.0228969087699 0.0
0.485716001646 -0.00289868527267 0.0
0.415158808414 0.00744778984864 0.0
0.415008499598 0.00726884089353 0.0
0.414612154275 0.00728312930469 0.0
0.414062524355 0.00728601001385 0.0
0.413948167966 0.00723841693922 0.0
0.414016350508 0.00720327020426 0.0
0.414063137822 0.00719598887853 0.0
0.410573006603 0.00738944994768 0.0
0.409812086912 0.00732134696838 0.0
0.409396600313 0.00720194871226 0.0
0.409740995149 0.0072248936998 0.0
0.410828244252 0.00724454138761 0.0
0.416315289112 0.0062864952051 0.0
1.41407972504 -0.12997954411 0.0
0.428209555307 0.0153037413286 0.0
0.958154017006 -0.267490281296 0.0
0.423664333091 0.0146935755038 0.0
0.424591223405 0.0146483422675 0.0
0.432107435377 0.0166652582057 0.0
0.432424514029 0.0161819586126 0.0
0.432659545032 0.0160704956397 0.0
0.432763244264 0.0160191879269 0.0
0.432797788077 0.0171972591029 0.0
0.296787676007 -0.011756675499 0.0
0.45598174595 -0.00994290200771 0.0
0.457446038926 -0.0108880481074 0.0
0.466478249551 -0.00428759978138 0.0
0.427480132446 -0.00800624875368 0.0
0.440621764475 -0.0114193297219 0.0
0.730222494598 -0.0273598883105 0.0
0.545223282597 -0.0400206046473 0.0
0.470995136719 -0.00899315691077 0.0
0.405857645202 -0.00795410530019 0.0
0.391343703504 0.0056908170322 0.0
1.22037026234 -0.15342506864 0.0
0.478203330514 -0.0284058640891 0.0
1.03969500342 -0.0680849773838 0.0
0.491184727354 -0.00803661600584 0.0
0.494121812091 -0.00841962362661 0.0
0.521517251006 -0.0100770379795 0.0
0.532002092144 -0.0220983125455 0.0
0.523715448244 -0.0225382507189 0.0
0.332513469887 -0.0232063830634 0.0
0.526864057502 0.0060127768278 0.0
0.530389130598 0.00730189258288 0.0
0.527735341414 0.00552776823288 0.0
0.525750872676 0.00724715125491 0.0
0.509958529366 -0.00393778172244 0.0
0.525952437535 0.00725452672775 0.0
0.525869682207 0.00726449101699 0.0
0.523480619563 0.00767644097042 0.0
0.528445902675 0.00422753777331 0.0
0.481475747416 0.00827501495219 0.0
1.47175443663 -0.0372680482138 0.0
1.4850111425 -0.000492506026076 0.0
0.54123337247 0.0101096364815 0.0
0.545047803688 0.00660998539465 0.0
0.552098059286 0.00266749350002 0.0
0.544845409828 0.00654019904673 0.0
0.542132669845 0.0058635787251 0.0
0.544041501495 0.00661680421134 0.0
0.540291888501 0.00631673548208 0.0
0.543800841609 0.0065233055833 0.0
0.539075761484 0.00621341300751 0.0
0.543706926081 0.00646169075064 0.0
0.539323016296 0.00637109099076 0.0
0.543962643103 0.00642790094636 0.0
0.540486447074 0.00660966166692 0.0
0.541478962426 0.00666654512597 0.0
1.19016755659 -0.203432710216 0.0
0.932107878315 -0.0106034440918 0.0
0.334041668288 -0.00434878870766 0.0
0.348618832077 0.00546365456314 0.0
0.907598357909 -0.211224969965 0.0
0.516960557942 0.00567441687162 0.0
1.47886607102 -0.00333284809835 0.0
0.842714416502 -0.00624601211227 0.0
0.834344421057 -0.0120388497186 0.0
0.843054805926 -0.00879588031031 0.0
0.850259192965 -0.00896249617251 0.0
0.856176866461 -0.00796601149025 0.0
0.852933627024 -0.00738453617643 0.0
0.846520306099 -0.00675237651834 0.0
0.1872590379 -0.0442241247625 0.0
0.847803931208 -0.00836743873437 0.0
0.84741044791 -0.00874448283324 0.0
0.847599672245 -0.00862582198326 0.0
0.84768070473 -0.00844685184715 0.0
0.850924286975 -0.00639637549996 0.0
0.849844817714 -0.00729588252271 0.0
0.856821332906 -0.00862358823208 0.0
0.851263604319 -0.00687283241872 0.0
0.985582671356 0.0134037707203 0.0
0.977543039571 -0.000567153417165 0.0
0.952899348504 0.00436705740608 0.0
0.951369712432 0.00232678651652 0.0
0.951460305309 0.00142833812586 0.0
0.827646873182 -0.0149757965377 0.0
0.568434818542 -0.0277326459766 0.0
0.950964569344 0.00166254428468 0.0
0.949849063811 0.00161192906106 0.0
0.949842132437 0.00129424405373 0.0
0.949871131616 0.00110154610108 0.0
0.94993561683 0.0013177454544 0.0
0.944962820989 0.00212117026017 0.0
0.323298421633 0.0174186191992 0.0
0.320734470193 0.0177124038188 0.0
0.319870047485 0.0176173250742 0.0
0.319837029944 0.0176628998321 0.0
0.320386542443 0.0177769433708 0.0
0.32086169079 0.0178050427661 0.0
0.324592553611 0.0181080100134 0.0
0.324370176425 0.0180996984229 0.0
0.324380291923 0.0181232995807 0.0
0.324492791603 0.0181518784494 0.0
0.325025008602 0.0181716233186 0.0
0.325243297639 0.0181732731392 0.0
0.325244774977 0.0182510388401 0.0