# vtk DataFile Version 2.0
2D Simulation Python
ASCII
DATASET UNSTRUCTURED_GRID
FIELD FieldData 1
NODES 1 2 int
1869 3447

POINTS 1869 double
0.0 1.0 0.0
0.0 3.0 0.0
40.0 3.0 0.0
40.0 0.0 0.0
4.0 0.0 0.0
4.0 1.0 0.0
0.0 1.285714285716665 0.0
0.0 1.571428571430556 0.0
0.0 1.857142857144446 0.0
0.0 2.142857142858336 0.0
0.0 2.428571428572225 0.0
0.0 2.714285714286111 0.0
0.2985074626863422 3.0 0.0
0.5970149253727002 3.0 0.0
0.8955223880590588 3.0 0.0
1.194029850745382 3.0 0.0
1.492537313431632 3.0 0.0
1.791044776117834 3.0 0.0
2.089552238804087 3.0 0.0
2.388059701490418 3.0 0.0
2.686567164176777 3.0 0.0
2.985074626863136 3.0 0.0
3.283582089549494 3.0 0.0
3.582089552235852 3.0 0.0
3.880597014922211 3.0 0.0
4.179104477608569 3.0 0.0
4.477611940294928 3.0 0.0
4.776119402981237 3.0 0.0
5.074626865667346 3.0 0.0
5.373134328353175 3.0 0.0
5.671641791038871 3.0 0.0
5.970149253724567 3.0 0.0
6.268656716410264 3.0 0.0
6.56716417909596 3.0 0.0
6.865671641781655 3.0 0.0
7.164179104467352 3.0 0.0
7.462686567153049 3.0 0.0
7.761194029838745 3.0 0.0
8.05970149252444 3.0 0.0
8.358208955210136 3.0 0.0
8.656716417895833 3.0 0.0
8.95522388058153 3.0 0.0
9.253731343267225 3.0 0.0
9.552238805952921 3.0 0.0
9.850746268638618 3.0 0.0
10.14925373132431 3.0 0.0
10.44776119401001 3.0 0.0
10.7462686566957 3.0 0.0
11.0447761193814 3.0 0.0
11.34328358206709 3.0 0.0
11.64179104475279 3.0 0.0
11.94029850743848 3.0 0.0
12.23880597012418 3.0 0.0
12.53731343280987 3.0 0.0
12.83582089549557 3.0 0.0
13.13432835818127 3.0 0.0
13.43283582086696 3.0 0.0
13.73134328355265 3.0 0.0
14.02985074623835 3.0 0.0
14.32835820892405 3.0 0.0
14.62686567160974 3.0 0.0
14.92537313429544 3.0 0.0
15.22388059698113 3.0 0.0
15.52238805966683 3.0 0.0
15.82089552235252 3.0 0.0
16.11940298503862 3.0 0.0
16.41791044772535 3.0 0.0
16.71641791041237 3.0 0.0
17.01492537309939 3.0 0.0
17.31343283578641 3.0 0.0
17.61194029847344 3.0 0.0
17.91044776116046 3.0 0.0
18.20895522384748 3.0 0.0
18.5074626865345 3.0 0.0
18.80597014922152 3.0 0.0
19.10447761190854 3.0 0.0
19.40298507459556 3.0 0.0
19.70149253728258 3.0 0.0
19.9999999999696 3.0 0.0
20.29850746265662 3.0 0.0
20.59701492534364 3.0 0.0
20.89552238803066 3.0 0.0
21.19402985071768 3.0 0.0
21.49253731340471 3.0 0.0
21.79104477609173 3.0 0.0
22.08955223877875 3.0 0.0
22.38805970146577 3.0 0.0
22.68656716415279 3.0 0.0
22.98507462683981 3.0 0.0
23.28358208952683 3.0 0.0
23.58208955221385 3.0 0.0
23.88059701490088 3.0 0.0
24.1791044775879 3.0 0.0
24.47761194027491 3.0 0.0
24.77611940296193 3.0 0.0
25.07462686564896 3.0 0.0
25.37313432833598 3.0 0.0
25.671641791023 3.0 0.0
25.97014925371002 3.0 0.0
26.26865671639704 3.0 0.0
26.56716417908406 3.0 0.0
26.86567164177108 3.0 0.0
27.1641791044581 3.0 0.0
27.46268656714512 3.0 0.0
27.76119402983214 3.0 0.0
28.05970149251916 3.0 0.0
28.35820895520619 3.0 0.0
28.65671641789321 3.0 0.0
28.95522388058023 3.0 0.0
29.25373134326725 3.0 0.0
29.55223880595426 3.0 0.0
29.85074626864129 3.0 0.0
30.14925373132831 3.0 0.0
30.44776119401533 3.0 0.0
30.74626865670236 3.0 0.0
31.04477611938937 3.0 0.0
31.34328358207639 3.0 0.0
31.64179104476341 3.0 0.0
31.94029850745043 3.0 0.0
32.23880597013746 3.0 0.0
32.53731343282448 3.0 0.0
32.8358208955115 3.0 0.0
33.13432835819852 3.0 0.0
33.43283582088554 3.0 0.0
33.73134328357256 3.0 0.0
34.02985074625958 3.0 0.0
34.3283582089466 3.0 0.0
34.62686567163362 3.0 0.0
34.92537313432064 3.0 0.0
35.22388059700766 3.0 0.0
35.52238805969468 3.0 0.0
35.8208955223817 3.0 0.0
36.11940298506872 3.0 0.0
36.41791044775574 3.0 0.0
36.71641791044276 3.0 0.0
37.01492537312978 3.0 0.0
37.31343283581681 3.0 0.0
37.61194029850382 3.0 0.0
37.91044776119085 3.0 0.0
38.20895522387787 3.0 0.0
38.5074626865649 3.0 0.0
38.80597014925192 3.0 0.0
39.10447761193894 3.0 0.0
39.40298507462596 3.0 0.0
39.70149253731298 3.0 0.0
40.0 2.700000000001935 0.0
40.0 2.400000000003002 0.0
40.0 2.100000000002161 0.0
40.0 1.800000000002828 0.0
40.0 1.500000000004164 0.0
40.0 1.200000000003365 0.0
40.0 0.9000000000025241 0.0
40.0 0.6000000000016827 0.0
40.0 0.3000000000008414 0.0
39.70000000000115 0.0 0.0
39.40000000000229 0.0 0.0
39.10000000000343 0.0 0.0
38.80000000000458 0.0 0.0
38.50000000000572 0.0 0.0
38.20000000000687 0.0 0.0
37.90000000000801 0.0 0.0
37.60000000000915 0.0 0.0
37.3000000000103 0.0 0.0
37.00000000001144 0.0 0.0
36.70000000001259 0.0 0.0
36.40000000001373 0.0 0.0
36.10000000001487 0.0 0.0
35.80000000001602 0.0 0.0
35.50000000001717 0.0 0.0
35.20000000001831 0.0 0.0
34.90000000001945 0.0 0.0
34.6000000000206 0.0 0.0
34.30000000002174 0.0 0.0
34.00000000002289 0.0 0.0
33.70000000002403 0.0 0.0
33.40000000002517 0.0 0.0
33.10000000002632 0.0 0.0
32.80000000002747 0.0 0.0
32.50000000002861 0.0 0.0
32.20000000002975 0.0 0.0
31.9000000000309 0.0 0.0
31.60000000003204 0.0 0.0
31.30000000003319 0.0 0.0
31.00000000003433 0.0 0.0
30.70000000003548 0.0 0.0
30.40000000003662 0.0 0.0
30.10000000003777 0.0 0.0
29.80000000003891 0.0 0.0
29.50000000004005 0.0 0.0
29.2000000000412 0.0 0.0
28.90000000004234 0.0 0.0
28.60000000004348 0.0 0.0
28.30000000004463 0.0 0.0
28.00000000004577 0.0 0.0
27.70000000004692 0.0 0.0
27.40000000004806 0.0 0.0
27.1000000000492 0.0 0.0
26.80000000005035 0.0 0.0
26.50000000005149 0.0 0.0
26.20000000005263 0.0 0.0
25.90000000005378 0.0 0.0
25.60000000005492 0.0 0.0
25.30000000005606 0.0 0.0
25.00000000005721 0.0 0.0
24.70000000005835 0.0 0.0
24.40000000005949 0.0 0.0
24.10000000006064 0.0 0.0
23.80000000006178 0.0 0.0
23.50000000006293 0.0 0.0
23.20000000006407 0.0 0.0
22.90000000006521 0.0 0.0
22.60000000006636 0.0 0.0
22.3000000000675 0.0 0.0
22.00000000006795 0.0 0.0
21.70000000006683 0.0 0.0
21.40000000006501 0.0 0.0
21.1000000000632 0.0 0.0
20.80000000006138 0.0 0.0
20.50000000005956 0.0 0.0
20.20000000005775 0.0 0.0
19.90000000005593 0.0 0.0
19.60000000005412 0.0 0.0
19.3000000000523 0.0 0.0
19.00000000005049 0.0 0.0
18.70000000004867 0.0 0.0
18.40000000004686 0.0 0.0
18.10000000004504 0.0 0.0
17.80000000004323 0.0 0.0
17.50000000004141 0.0 0.0
17.2000000000396 0.0 0.0
16.90000000003779 0.0 0.0
16.60000000003597 0.0 0.0
16.30000000003416 0.0 0.0
16.00000000003234 0.0 0.0
15.70000000003053 0.0 0.0
15.40000000002871 0.0 0.0
15.1000000000269 0.0 0.0
14.80000000002508 0.0 0.0
14.50000000002327 0.0 0.0
14.20000000002145 0.0 0.0
13.90000000001964 0.0 0.0
13.60000000001783 0.0 0.0
13.30000000001601 0.0 0.0
13.0000000000142 0.0 0.0
12.70000000001238 0.0 0.0
12.40000000001056 0.0 0.0
12.10000000000875 0.0 0.0
11.80000000000694 0.0 0.0
11.50000000000512 0.0 0.0
11.20000000000331 0.0 0.0
10.90000000000149 0.0 0.0
10.59999999999968 0.0 0.0
10.29999999999787 0.0 0.0
9.99999999999605 0.0 0.0
9.699999999994237 0.0 0.0
9.399999999992424 0.0 0.0
9.099999999990604 0.0 0.0
8.799999999988792 0.0 0.0
8.499999999986976 0.0 0.0
8.199999999985256 0.0 0.0
7.899999999985106 0.0 0.0
7.599999999986252 0.0 0.0
7.299999999987392 0.0 0.0
6.999999999988546 0.0 0.0
6.699999999989686 0.0 0.0
6.399999999990833 0.0 0.0
6.099999999991979 0.0 0.0
5.799999999993126 0.0 0.0
5.499999999994273 0.0 0.0
5.199999999995413 0.0 0.0
4.899999999996567 0.0 0.0
4.599999999997706 0.0 0.0
4.299999999998853 0.0 0.0
4.0 0.2499999999994109 0.0
4.0 0.4999999999986918 0.0
4.0 0.7499999999993401 0.0
3.714285714284526 1.0 0.0
3.428571428569844 1.0 0.0
3.142857142857542 1.0 0.0
2.85714285714524 1.0 0.0
2.571428571432937 1.0 0.0
2.285714285720635 1.0 0.0
2.000000000008246 1.0 0.0
1.714285714292858 1.0 0.0
1.428571428577383 1.0 0.0
1.142857142861906 1.0 0.0
0.8571428571464295 1.0 0.0
0.5714285714309533 1.0 0.0
0.2857142857154762 1.0 0.0
5.440895737063815 1.5321810752057226 0.0
38.359631109480205 1.5447862624578594 0.0
36.55156595862513 1.5678345293898692 0.0
34.78710000302187 1.5642234316343742 0.0
32.9971954225337 1.5616773154845147 0.0
31.206213093159832 1.5616241273381726 0.0
29.41743466562333 1.560813469344192 0.0
27.626772764562254 1.5595442904607533 0.0
25.8345099987122 1.5596010883176028 0.0
24.038234267385175 1.5598722611419031 0.0
22.28410800461182 1.5615988969890857 0.0
20.49887470353422 1.5590348043573192 0.0
18.706375623998746 1.5616894963191854 0.0
16.914750360834766 1.563910776410858 0.0
15.128618847375977 1.5556246456016476 0.0
13.33374344126039 1.5511890511266595 0.0
7.030759682398678 1.534442092687481 0.0
11.566049076409328 1.4969212260342677 0.0
8.761848711004971 1.5139156602083867 0.0
10.122611928795317 1.6236584616968261 0.0
4.526369532015368 1.9188661001514808 0.0
3.5185905812745153 2.0252610404151303 0.0
0.8929602934338949 2.0484837616277805 0.0
2.1303862954741786 2.0128365285831764 0.0
37.45664389250272 1.9215745158530688 0.0
35.76980667423149 1.9566969156967804 0.0
33.97560565425424 1.951129826056218 0.0
32.18468257484926 1.9502423738014634 0.0
30.393953542480887 1.9506962134922115 0.0
28.603869422410817 1.9490708688174188 0.0
26.81243432007293 1.9489436858605451 0.0
25.020320832831715 1.9489079511655873 0.0
23.222921081222125 1.9532226644536412 0.0
21.438577064798203 1.9510574224417399 0.0
19.648320628121976 1.9527003755547225 0.0
17.85646983812719 1.9551347438424853 0.0
16.066386904528457 1.9524591667910451 0.0
14.276194644033797 1.949504085905422 0.0
12.469240233774332 1.9331189870611798 0.0
7.903765740008337 1.9170293474259146 0.0
32.11693620250729 1.0153772846462719 0.0
33.9052719667752 1.018314117442152 0.0
30.327339895719167 1.0165516066818012 0.0
35.685997274784626 1.0240920134690144 0.0
37.47826336526687 0.9143900830224962 0.0
28.544382306259507 1.008832531079308 0.0
26.750770900913658 1.008697819364698 0.0
24.956031422002802 1.0087920104531238 0.0
23.15163741793711 1.0082816543559 0.0
21.376334792735403 0.9954454147104485 0.0
19.585082890394872 1.0071215101888775 0.0
17.79121251690518 1.0187009575384915 0.0
16.01281168302144 1.0009471538479193 0.0
14.223190832776599 0.9947506625384457 0.0
12.435116110262122 0.9533072381305729 0.0
7.904118015944833 0.9516540425309552 0.0
6.260075186818547 0.9882083828748837 0.0
6.226199612153765 2.037271304307933 0.0
4.831970914683074 0.828771924662698 0.0
[...]
POINT_DATA 1869
VECTORS vector double
0.0 0.0 0.0
0.0 0.0 0.0
0.0 0.0 0.0
0.0 0.0 0.0
0.0 0.0 0.0
0.0 0.0 0.0
0.734693877556 0.0 0.0
1.22448979592 0.0 0.0
1.4693877551 0.0 0.0
1.4693877551 0.0 0.0
1.22448979592 0.0 0.0
0.73469387755 0.0 0.0
0.0 0.0 0.0
0.0 0.0 0.0
0.0 0.0 0.0
0.0 0.0 0.0
0.0 0.0 0.0
0.0 0.0 0.0
0.0 0.0 0.0
0.0 0.0 0.0
0.0 0.0 0.0
0.0 0.0 0.0
0.0 0.0 0.0
0.0 0.0 0.0
0.0 0.0 0.0
0.0 0.0 0.0
0.0 0.0 0.0
0.0 0.0 0.0
0.0 0.0 0.0
0.0 0.0 0.0
0.0 0.0 0.0
0.0 0.0 0.0
0.0 0.0 0.0
0.0 0.0 0.0
0.0 0.0 0.0
0.0 0.0 0.0
0.0 0.0 0.0
0.0 0.0 0.0
0.0 0.0 0.0
0.0 0.0 0.0
0.0 0.0 0.0
0.0 0.0 0.0
0.0 0.0 0.0
0.0 0.0 0.0
0.0 0.0 0.0
0.0 0.0 0.0
0.0 0.0 0.0
0.0 0.0 0.0
0.0 0.0 0.0
0.0 0.0 0.0
0.0 0.0 0.0
0.0 0.0 0.0
0.0 0.0 0.0
0.0 0.0 0.0
0.0 0.0 0.0
0.0 0.0 0.0
0.0 0.0 0.0
0.0 0.0 0.0
0.0 0.0 0.0
0.0 0.0 0.0
0.0 0.0 0.0
0.0 0.0 0.0
0.0 0.0 0.0
0.0 0.0 0.0
0.0 0.0 0.0
0.0 0.0 0.0
0.0 0.0 0.0
0.0 0.0 0.0
0.0 0.0 0.0
0.0 0.0 0.0
0.0 0.0 0.0
0.0 0.0 0.0
0.0 0.0 0.0
0.0 0.0 0.0
0.0 0.0 0.0
0.0 0.0 0.0
0.0 0.0 0.0
0.0 0.0 0.0
0.0 0.0 0.0
0.0 0.0 0.0
0.0 0.0 0.0
0.0 0.0 0.0
0.0 0.0 0.0
0.0 0.0 0.0
0.0 0.0 0.0
0.0 0.0 0.0
0.0 0.0 0.0
0.0 0.0 0.0
0.0 0.0 0.0
0.0 0.0 0.0
0.0 0.0 0.0
0.0 0.0 0.0
0.0 0.0 0.0
0.0 0.0 0.0
0.0 0.0 0.0
0.0 0.0 0.0
0.0 0.0 0.0
0.0 0.0 0.0
0.0 0.0 0.0
0.0 0.0 0.0
0.0 0.0 0.0
0.0 0.0 0.0
0.0 0.0 0.0
0.0 0.0 0.0
0.0 0.0 0.0
0.0 0.0 0.0
0.0 0.0 0.0
0.0 0.0 0.0
0.0 0.0 0.0
0.0 0.0 0.0
0.0 0.0 0.0
0.0 0.0 0.0
0.0 0.0 0.0
0.0 0.0 0.0
0.0 0.0 0.0
0.0 0.0 0.0
0.0 0.0 0.0
0.0 0.0 0.0
0.0 0.0 0.0
0.0 0.0 0.0
0.0 0.0 0.0
0.0 0.0 0.0
0.0 0.0 0.0
0.0 0.0 0.0
0.0 0.0 0.0
0.0 0.0 0.0
0.0 0.0 0.0
0.0 0.0 0.0
0.0 0.0 0.0
0.0 0.0 0.0
0.0 0.0 0.0
0.0 0.0 0.0
0.0 0.0 0.0
0.0 0.0 0.0
0.0 0.0 0.0
0.0 0.0 0.0
0.0 0.0 0.0
0.0 0.0 0.0
0.0 0.0 0.0
0.0 0.0 0.0
0.0 0.0 0.0
0.0 0.0 0.0
0.0 0.0 0.0
0.0 0.0 0.0
0.0 0.0 0.0
0.338564053929 0.018840460884 0.0
0.61013638048 0.00645591802449 0.0
0.837851935427 0.00926496146503 0.0
0.989339649017 0.00302840562277 0.0
1.04029576557 1.07858687048e-05 0.0
0.986580933985 -0.00253604887395 0.0
0.842123362632 -0.0104671200612 0.0
0.620938743215 -0.00508339448668 0.0
0.339934514542 -0.0181282496613 0.0
0.0 0.0 0.0
0.0 0.0 0.0
0.0 0.0 0.0
0.0 0.0 0.0
0.0 0.0 0.0
0.0 0.0 0.0
0.0 0.0 0.0
0.0 0.0 0.0
0.0 0.0 0.0
0.0 0.0 0.0
0.0 0.0 0.0
0.0 0.0 0.0
0.0 0.0 0.0
0.0 0.0 0.0
0.0 0.0 0.0
0.0 0.0 0.0
0.0 0.0 0.0
0.0 0.0 0.0
0.0 0.0 0.0
0.0 0.0 0.0
0.0 0.0 0.0
0.0 0.0 0.0
0.0 0.0 0.0
0.0 0.0 0.0
0.0 0.0 0.0
0.0 0.0 0.0
0.0 0.0 0.0
0.0 0.0 0.0
0.0 0.0 0.0
0.0 0.0 0.0
0.0 0.0 0.0
0.0 0.0 0.0
0.0 0.0 0.0
0.0 0.0 0.0
0.0 0.0 0.0
0.0 0.0 0.0
0.0 0.0 0.0
0.0 0.0 0.0
0.0 0.0 0.0
0.0 0.0 0.0
0.0 0.0 0.0
0.0 0.0 0.0
0.0 0.0 0.0
0.0 0.0 0.0
0.0 0.0 0.0
0.0 0.0 0.0
0.0 0.0 0.0
0.0 0.0 0.0
0.0 0.0 0.0
0.0 0.0 0.0
0.0 0.0 0.0
0.0 0.0 0.0
0.0 0.0 0.0
0.0 0.0 0.0
0.0 0.0 0.0
0.0 0.0 0.0
0.0 0.0 0.0
0.0 0.0 0.0
0.0 0.0 0.0
0.0 0.0 0.0
0.0 0.0 0.0
0.0 0.0 0.0
0.0 0.0 0.0
0.0 0.0 0.0
0.0 0.0 0.0
0.0 0.0 0.0
0.0 0.0 0.0
0.0 0.0 0.0
0.0 0.0 0.0
0.0 0.0 0.0
0.0 0.0 0.0
0.0 0.0 0.0
0.0 0.0 0.0
0.0 0.0 0.0
0.0 0.0 0.0
0.0 0.0 0.0
0.0 0.0 0.0
0.0 0.0 0.0
0.0 0.0 0.0
0.0 0.0 0.0
0.0 0.0 0.0
0.0 0.0 0.0
0.0 0.0 0.0
0.0 0.0 0.0
0.0 0.0 0.0
0.0 0.0 0.0
0.0 0.0 0.0
0.0 0.0 0.0
0.0 0.0 0.0
0.0 0.0 0.0
0.0 0.0 0.0
0.0 0.0 0.0
0.0 0.0 0.0
0.0 0.0 0.0
0.0 0.0 0.0
0.0 0.0 0.0
0.0 0.0 0.0
0.0 0.0 0.0
0.0 0.0 0.0
0.0 0.0 0.0
0.0 0.0 0.0
0.0 0.0 0.0
0.0 0.0 0.0
0.0 0.0 0.0
0.0 0.0 0.0
0.0 0.0 0.0
0.0 0.0 0.0
0.0 0.0 0.0
0.0 0.0 0.0
0.0 0.0 0.0
0.0 0.0 0.0
0.0 0.0 0.0
0.0 0.0 0.0
0.0 0.0 0.0
0.0 0.0 0.0
0.0 0.0 0.0
0.0 0.0 0.0
0.0 0.0 0.0
0.0 0.0 0.0
0.0 0.0 0.0
0.0 0.0 0.0
0.0 0.0 0.0
0.0 0.0 0.0
0.0 0.0 0.0
0.0 0.0 0.0
0.0 0.0 0.0
0.0 0.0 0.0
0.0 0.0 0.0
0.0 0.0 0.0
0.0 0.0 0.0
0.0 0.0 0.0
0.0 0.0 0.0
0.0 0.0 0.0
0.0 0.0 0.0
0.0 0.0 0.0
1.12070054392 -0.224965585565 0.0
0.996859560285 -0.0014333989828 0.0
0.991092279777 0.0016646233763 0.0
0.993673326588 0.000617828419743 0.0
0.99358813696 -0.000195911265277 0.0
0.993302294268 0.000132855929813 0.0
0.992051542293 -7.45296387942e-05 0.0
0.991998076498 -0.000459081145516 0.0
0.991988100885 -0.000595288951623 0.0
0.991943801819 -0.000246354666503 0.0
0.99212319193 0.00151814741079 0.0
0.990990885783 0.00091443349022 0.0
0.991040078172 -1.19313176068e-05 0.0
0.991925302657 -0.000171035566208 0.0
0.99287968484 -0.000346990601311 0.0
0.992572498846 -0.00284209739639 0.0
1.02072623079 -0.0658977498915 0.0
0.992208162176 0.00437012240992 0.0
0.995519242849 0.00226897000583 0.0
0.982473199334 0.0108977812478 0.0
1.34289089925 -0.177408862451 0.0
1.46806462639 -0.0812406418541 0.0
1.48747324126 0.00272661125717 0.0
1.47824226599 -0.0111829832137 0.0
0.921337957798 -0.0032120981674 0.0
0.90679562014 0.00590680241797 0.0
0.908534118853 0.00323243880967 0.0
0.908434982447 0.00304403475409 0.0
0.907300935024 0.0033432209483 0.0
0.907219093711 0.00297726675765 0.0
0.907214529401 0.00278493257431 0.0
0.907332943589 0.00279187942724 0.0
0.905376908129 0.00326067498128 0.0
0.904394247494 0.00341940626562 0.0
0.902900296403 0.00276687935081 0.0
0.902648288255 0.00236560159483 0.0
0.904757442047 0.00244403698754 0.0
0.907148619107 0.00118385205446 0.0
0.914503689863 -0.000752302059431 0.0
0.918704360401 -0.00713299477377 0.0
0.896324337358 0.000562559999104 0.0
0.897114969267 0.00070053430995 0.0
0.897087997661 0.00173811234847 0.0
0.897908952197 0.00123083592182 0.0
0.842725272815 -0.00257819061593 0.0
0.893883439222 0.000559706016651 0.0
0.893866932755 0.000360979876564 0.0
0.893813222821 0.000379674212827 0.0
0.893926375232 0.0015785237335 0.0
0.88502582332 0.00268501357871 0.0
0.890081907975 0.0010881274531 0.0
0.897632600401 -0.000841948344556 0.0
0.891092682125 0.00040728648986 0.0
0.886688794141 -0.000416021789566 0.0
0.862228925383 -0.00176010537425 0.0
0.872487826385 -0.0157128707775 0.0
0.805175124535 -0.127605926929 0.0
0.983689555859 -0.0860681951659 0.0
0.379731153875 -0.15397558221 0.0
0.861111956221 0.00350548366381 0.0
0.876170772303 0.0101728509902 0.0
0.836809085813 -0.00820833477461 0.0
0.842576497589 0.00465534123118 0.0
0.846134826723 -0.000400058693666 0.0
0.785844758175 0.0117498665578 0.0
0.99595492819 -0.0999919523749 0.0
0.744333449016 -0.0337101348886 0.0
0.740144955261 -0.00858589342725 0.0
0.740065087729 -0.00752620277768 0.0
0.763756907734 -0.00533126475028 0.0
0.755549040523 -0.00744129303557 0.0
0.754039987631 -0.00633473673416 0.0
0.752155937098 -0.00260880254223 0.0
0.753974694404 -0.00399156553032 0.0
0.753606109781 -0.00420493071624 0.0
0.753753718368 -0.00411934157558 0.0
0.754167607743 -0.00388471593678 0.0
0.757434665348 -0.000285647504518 0.0
0.756639088462 -0.000697571139901 0.0
0.795649082185 -0.00325638894808 0.0
0.758420846404 0.00035092206496 0.0
0.766138247486 0.00381554912639 0.0
0.742582450231 -0.00110265909857 0.0
0.746059230895 -0.0066631016126 0.0
0.803632901254 0.00139658608642 0.0
0.738889058551 0.00546543923096 0.0
0.73917526915 0.00481749957754 0.0
0.738650087962 0.00489288414125 0.0
0.737644656186 0.00490566333004 0.0
0.789159625822 0.00543753255723 0.0
0.737638986952 0.00473037945145 0.0
0.737710518581 0.00464208659564 0.0
0.737777364117 0.00472993423336 0.0
0.730071330768 0.00516784633192 0.0
0.729323867656 0.00503508507464 0.0
0.72855250844 0.00466589781699 0.0
0.728732298943 0.00457407208283 0.0
0.731103033983 0.00447847093377 0.0
0.736211963387 0.00260621370284 0.0
0.779520578637 -0.0233106159137 0.0
0.704618311792 0.00183032598592 0.0
0.698730660582 -0.00141795927041 0.0
1.40632833084 -0.0314281528893 0.0
0.416625560472 -0.125577367795 0.0
1.22461890302 -0.0209255678805 0.0
0.733229045654 0.00257076744616 0.0
1.18344093189 0.0102329531075 0.0
1.35810043996 -0.145757386951 0.0
0.6939614024 0.00603042680149 0.0
1.32801828139 -0.0188401123238 0.0
1.02481321156 -0.281565166797 0.0
1.08086318004 -0.056764219085 0.0
1.01238610821 -0.00341797466685 0.0
0.66302544678 -0.0108982055054 0.0
0.653980811882 -0.00811715077076 0.0
0.651535128755 -0.00773117496193 0.0
0.650528382791 -0.00764498529778 0.0
0.651047024901 -0.00742311348602 0.0
0.652238497192 -0.00727316943423 0.0
0.654404873433 -0.00732800904314 0.0
0.655503896338 -0.0075640244733 0.0
0.655359797847 -0.0075170662907 0.0
0.655420304898 -0.00740234747375 0.0
0.655853430987 -0.00728032581869 0.0
0.656666927828 -0.00741344723132 0.0
0.656855708656 -0.00717525168972 0.0
0.640094553755 0.00560803429098 0.0
0.658261523913 0.00160664823889 0.0
0.993271854889 0.00741410007698 0.0
0.990294487731 0.00942017103425 0.0
0.662959915875 -0.0142952059607 0.0
0.666476256465 -0.0129695590813 0.0
0.665266798626 -0.0152373680878 0.0
0.676087489555 -0.0167961639365 0.0
1.15286308031 0.0195836454394 0.0
0.672727995029 -0.0159709476954 0.0
0.679880929002 0.001258507875 0.0
0.686147660495 0.0004444207854 0.0
0.686097417148 0.000389175971682 0.0
0.68614177919 0.000505476317535 0.0
0.683424461645 -0.00105232234686 0.0
0.687833616581 0.000940918642298 0.0
0.684425380632 -0.00154902350722 0.0
0.684423461835 -0.00171511317089 0.0
1.13994857784 -0.00695095071734 0.0
0.764114801951 -0.0462690492059 0.0
0.997022643187 -0.00159758515434 0.0
0.997058025904 -0.0012246630536 0.0
0.996503340075 -0.00101060470778 0.0
0.995883532852 -0.0017631636456 0.0
0.995186521244 0.000133648871908 0.0
0.995844185587 -0.00203472704675 0.0
0.995818581255 -0.00205948375167 0.0
0.995766360934 -0.00136387485416 0.0
0.994178643037 -0.000790954979542 0.0
0.993269795716 -0.00168279333427 0.0
0.993987204691 -0.00241574161695 0.0
0.99531857795 -0.00245821492792 0.0
0.995134859053 -0.00338291184631 0.0
0.993164787296 -0.00504602275113 0.0
1.00566218132 -0.0247742078242 0.0
0.994263167565 -0.00664041620163 0.0
0.993851961883 0.000507276758483 0.0
1.05271956914 -0.167669489609 0.0
0.531813199444 -0.0289934590818 0.0
0.997064155586 0.00131958381397 0.0
0.996973929785 0.00132305104803 0.0
0.995936321264 0.00179951348817 0.0
0.996662186789 0.0025498072733 0.0
0.995687956797 0.00122572660485 0.0
0.995672057832 0.00101298474892 0.0
0.995654619616 0.00111580270497 0.0
0.995971978644 0.00129874908059 0.0
0.994493949963 0.00104036759422 0.0
0.994135150091 -7.81657861115e-05 0.0
0.594036388124 -0.0272411875796 0.0
0.995166454265 -0.000533926258672 0.0
0.996188184203 -0.000224731617961 0.0
0.995918362928 -0.00207454428617 0.0
0.992106465028 0.000188526008769 0.0
1.00128043319 -0.00848183842112 0.0
0.843843905704 -0.0704007159788 0.0
1.18790531374 -0.259138776008 0.0
0.560609790035 -3.83191033247e-05 0.0
0.579795451032 0.00491547757397 0.0
1.19104409656 -0.037247291244 0.0
0.00987166693396 -0.0191701316069 0.0
0.544614262089 -0.00645526584739 0.0
0.574750191182 -0.00276236101834 0.0
0.596121835444 0.00689151846555 0.0
0.559786192714 0.0101993927248 0.0
1.05699346687 -0.0133831692752 0.0
0.535564631895 -0.000378079552017 0.0
0.560320184778 -0.00277772118477 0.0
0.53630789919 -0.000470872070748 0.0
0.610225979267 -0.00588284690818 0.0
0.615546904122 0.00486081260792 0.0
0.58278251162 -0.00316385417461 0.0
0.617393396843 0.00362125302018 0.0
0.61712179776 0.00357768791437 0.0
0.616131137228 0.00366947358837 0.0
0.616060666706 0.00352776238313 0.0
0.616056045222 0.00345321611707 0.0
0.616269990778 0.00347865242774 0.0
0.610911780538 0.00383193006005 0.0
0.610406605873 0.0037992751479 0.0
0.609292843933 0.00356526668525 0.0
0.608961691178 0.00344363184962 0.0
0.610702312149 0.00342481992054 0.0
0.613884266904 0.00264920529154 0.0
0.576210846569 0.000998686240438 0.0
0.62495574564 -0.00298004758662 0.0
0.536457491536 -0.000440336885335 0.0
0.589363294829 0.00265128663233 0.0
0.536048318358 0.00608944382458 0.0
0.536489488882 -0.000336964506092 0.0
0.530418923266 0.00651976069662 0.0
1.18631766 -0.00897852084687 0.0
0.544689525005 0.00360215452794 0.0
0.54756168263 -0.00771822618862 0.0
0.537300422363 -0.00252798353804 0.0
0.542549276451 0.00273696464264 0.0
0.544564217243 0.00389175841569 0.0
0.550105485317 0.00398481910424 0.0
0.495120768631 -0.00332767210138 0.0
1.07591947111 -0.005236622723 0.0
1.08999257476 0.0153510755818 0.0
1.01932350172 -0.113915268017 0.0
0.938362421909 0.00551829094811 0.0
0.542053072001 -0.00413916796909 0.0
0.527287135466 0.00211314283726 0.0
1.04025883368 -0.027353627281 0.0
0.576816478597 0.00286247711672 0.0
0.967562416835 -0.0641608921768 0.0
0.576731305041 -0.00396735957628 0.0
0.997595524396 -0.0062119612239 0.0
0.407007540722 -0.0736573204448 0.0
0.538707973413 0.0029048404596 0.0
0.569800270514 0.0031085311979 0.0
0.568228185071 0.00402397971466 0.0
0.92522489619 6.99810874235e-05 0.0
0.916425981408 0.00366086188873 0.0
0.935767461833 0.00521485439178 0.0
1.09749208415 -0.135935132437 0.0
0.912832710627 0.00280485405261 0.0
0.915077955065 -0.00181678778071 0.0
0.915103678534 -0.0023491518849 0.0
0.914346151485 -0.00207432105329 0.0
0.913665888948 -0.00231628751652 0.0
0.91367165485 -0.0025637420717 0.0
0.913745809527 -0.0026443280493 0.0
0.913329242855 -0.00230975701775 0.0
0.911033460061 -0.00194627448066 0.0
0.909770167336 -0.00242658134535 0.0
0.909422246049 -0.00301291763908 0.0
0.910539345113 -0.00305989562823 0.0
0.913030808489 -0.00358820825327 0.0
0.91746925742 -0.00614440300148 0.0
0.914296351827 -0.00495200087177 0.0
0.917606624054 -0.00294146871854 0.0
0.922000081615 -0.00297143626886 0.0
0.919621571654 -0.003275438493 0.0
0.91820620134 -0.00226161725944 0.0
0.92203151399 -0.000768532155754 0.0
0.931368514525 -0.00181756351049 0.0
0.933526825923 -0.00127805202928 0.0
0.93135541366 -0.00203153448691 0.0
0.93305055863 -0.00205226251146 0.0
0.931445955373 -0.00188010128082 0.0
0.933056096999 -0.00180637697829 0.0
0.932331590471 -0.00129990546567 0.0
0.134115422824 -0.0664125638651 0.0
0.910339084809 0.000112777989346 0.0
0.919727086944 -0.00890356562478 0.0
0.930998814346 0.0100604008597 0.0
0.885295846271 -0.0791702142453 0.0
0.521064568533 -0.0016291897579 0.0
0.508118853477 0.00617719816425 0.0
0.309635903855 -0.158776534101 0.0
0.895075909623 -0.00610195763105 0.0
0.883550176783 0.00847355613459 0.0
0.904162141765 0.00273025786386 0.0
0.589402503827 -0.000752987979439 0.0
0.69677068263 -0.199817173775 0.0
0.882348171001 0.00411018851279 0.0
0.558069478884 -0.0136881023749 0.0
0.814817555623 -0.193981354592 0.0
1.48549413312 0.00796608632191 0.0
1.03706078357 0.000948216624438 0.0
0.900708335603 0.0104800176052 0.0
0.948837022623 -0.00528339651188 0.0
0.932187036776 0.00518281260535 0.0
0.944613399068 -0.0272931578934 0.0
0.927626952504 -0.00418990833028 0.0
1.46543838078 -0.0139112378103 0.0
0.989971578317 0.0001984994882 0.0
0.932505812502 0.00279611740527 0.0
0.918196225155 -0.00174236693696 0.0
0.917892212627 -0.00172553671417 0.0
0.917491626076 -0.000289973374902 0.0
0.916606646497 -0.00152450603085 0.0
0.916676566144 -0.00188992202622 0.0
0.9496861143 0.010652265076 0.0
0.916694909369 -0.00205249292102 0.0
0.916770371673 -0.0019298334638 0.0
0.907745911801 -0.000756652190142 0.0
0.907139104533 -0.000877688365322 0.0
0.906161504833 -0.00157438188074 0.0
0.906232245299 -0.00182924589565 0.0
0.908685172515 -0.0018307370302 0.0
0.911308409531 -0.00369344256067 0.0
0.903212031647 -0.00113314938842 0.0
0.886200320904 0.00184341113586 0.0
0.953588706651 -0.00579762186494 0.0
0.951951246253 -0.0448383638572 0.0
0.947167747142 -0.00583216728231 0.0
0.951297864915 -0.00371095359856 0.0
0.955578939786 -0.00356225194462 0.0
0.954311561859 -0.00323076397172 0.0
0.95311218772 -0.00219787270562 0.0
0.95323741221 -0.00111251091137 0.0
0.956874052779 -0.000440950869562 0.0
0.957143129631 -0.00129945433916 0.0
0.956641475847 -0.00198959802608 0.0
0.954719691601 -0.00251636141172 0.0
0.95686664821 -0.00138256685282 0.0
0.954498136182 -0.00295397475891 0.0
0.954789123521 -0.00251249014286 0.0
0.954590443669 -0.00286536869185 0.0
0.423008054406 0.0228600000514 0.0
0.482973569201 -0.00294502878627 0.0
0.412654158598 0.00738874114411 0.0
0.412500016557 0.00722082999583 0.0
0.4120795885 0.00723374681026 0.0
0.411527857635 0.00723337954134 0.0
0.411447552045 0.00718233248524 0.0
0.411537765152 0.00715691432027 0.0
0.411456356697 0.00714719622374 0.0
0.407971863179 0.00733216054075 0.0
0.407265951708 0.00726762205012 0.0
0.406791990465 0.00716067652915 0.0
0.407047484249 0.00716820509566 0.0
0.40842463565 0.00714567414837 0.0
0.414026388293 0.00631726759029 0.0
1.41481244664 -0.128156166668 0.0
0.423538231394 0.0151501817067 0.0
0.95461200197 -0.262127371611 0.0
0.419041751196 0.0145985207859 0.0
0.419970378669 0.0145589353917 0.0
0.427499903939 0.0165179494722 0.0
0.427751895989 0.0160402834699 0.0
0.4279555225 0.0159403972473 0.0
0.428224470682 0.0159132175863 0.0
0.428249582009 0.017027144144 0.0
0.298135912261 -0.0123968950296 0.0
0.450806978034 -0.0098333060364 0.0
0.452376132519 -0.0107163516691 0.0
0.461882949543 -0.00425043519008 0.0
0.422683649938 -0.00803560145242 0.0
0.435461868519 -0.011256054293 0.0
0.732496341835 -0.0269324064961 0.0
0.549841366168 -0.0398974011207 0.0
0.467011497087 -0.00933436004071 0.0
0.401685955984 -0.00794781604761 0.0
0.386481760882 0.00576743953145 0.0
1.22444341703 -0.150738964918 0.0
0.464274564929 -0.0288127873885 0.0
1.03840946773 -0.0674897137173 0.0
0.485937601247 -0.00796943166455 0.0
0.489284745132 -0.00837269431327 0.0
0.516574455061 -0.0100126033332 0.0
0.526798328217 -0.0219232860678 0.0
0.518525407171 -0.0223692725111 0.0
0.329859558833 -0.0230308922963 0.0
0.521862572035 0.00601524476718 0.0
0.525386697331 0.00728345564711 0.0
0.522718963326 0.00553630954108 0.0
0.520683209397 0.0072264065127 0.0
0.505491015973 -0.00344749149514 0.0
0.520824145461 0.007238642508 0.0
0.520841107837 0.00729184814509 0.0
0.518603601316 0.00765307472977 0.0
0.523464052326 0.00426962676487 0.0
0.476264574195 0.00814290416184 0.0
1.47182990912 -0.0367542880368 0.0
1.48499986039 -0.000426377538159 0.0
0.538691803495 0.0100807463004 0.0
0.542601863367 0.00662157512426 0.0
0.549204334333 0.00312672649998 0.0
0.542369978386 0.00655604754027 0.0
0.539975035888 0.00579458071459 0.0
0.541542521549 0.00662853327965 0.0
0.537620310568 0.00626928031966 0.0
0.541319832495 0.00652786799274 0.0
0.536389789908 0.00623909988421 0.0
0.541278537125 0.00646418771725 0.0
0.536782404354 0.00638411004732 0.0
0.541480894561 0.00646835131681 0.0
0.537920398512 0.00660077118321 0.0
0.538848988125 0.00667203513374 0.0
1.19414366644 -0.199635091276 0.0
0.931746513979 -0.0104935475852 0.0
0.331069248922 -0.00410892847371 0.0
0.346876131146 0.00469450658514 0.0
0.9049307794 -0.209333966995 0.0
0.509284437239 0.00434113381859 0.0
1.47885616241 -0.00321542154059 0.0
0.837651806578 -0.0116151243951 0.0
0.833425207791 -0.0117593234899 0.0
0.841835385282 -0.00929225152049 0.0
0.84964771701 -0.00936432938608 0.0
0.855777440377 -0.00811948746626 0.0
0.85229264627 -0.00769589297403 0.0
0.845612787985 -0.0072523738216 0.0
0.181282054083 -0.0424978034644 0.0
0.846957065938 -0.00867563643036 0.0
0.846368787619 -0.00899967979681 0.0
0.846512126509 -0.00898541313742 0.0
0.846647873099 -0.00880840897946 0.0
0.850056221278 -0.00671466088274 0.0
0.84894735818 -0.00761684836531 0.0
0.856258446251 -0.00891945964156 0.0
0.850417413821 -0.00719105747184 0.0
0.993635666504 0.0105639609465 0.0
0.984269706144 0.00273909234221 0.0
0.957972538554 0.00442700515102 0.0
0.955986447763 0.00234934444793 0.0
0.956088014379 0.00149808376935 0.0
0.826289223154 -0.0157659543352 0.0
0.572207532267 -0.0273374457746 0.0
0.955592913709 0.00172617340558 0.0
0.95448748832 0.00164481519021 0.0
0.954527997898 0.00131061159756 0.0
0.954564386985 0.00118323965551 0.0
0.954483412218 0.00145588711825 0.0
0.94937627201 0.002107639112 0.0
0.321484211234 0.0173276404308 0.0
0.318633156372 0.0175629342274 0.0
0.31762856913 0.0174926482897 0.0
0.317685776771 0.0175464414264 0.0
0.3182507472 0.017650501064 0.0
0.318677247365 0.0176739401899 0.0
0.322414317366 0.0179824819044 0.0
0.322275142973 0.01797014508 0.0
0.322251273085 0.0179878956606 0.0
0.322343326152 0.0180170232004 0.0
0.322884575915 0.0180396701553 0.0
0.323124102349 0.0180435526737 0.0
0.323108905154 0.0181101739333 0.0