# vtk DataFile Version 2.0
2D Simulation Python
ASCII
DATASET UNSTRUCTURED_GRID
FIELD FieldData 1
NODES 1 2 int
1869 3447

POINTS 1869 double
0.0 1.0 0.0
0.0 3.0 0.0
40.0 3.0 0.0
40.0 0.0 0.0
4.0 0.0 0.0
4.0 1.0 0.0
0.0 1.285714285716665 0.0
0.0 1.571428571430556 0.0
0.0 1.857142857144446 0.0
0.0 2.142857142858336 0.0
0.0 2.428571428572225 0.0
0.0 2.714285714286111 0.0
0.2985074626863422 3.0 0.0
0.5970149253727002 3.0 0.0
0.8955223880590588 3.0 0.0
1.194029850745382 3.0 0.0
1.492537313431632 3.0 0.0
1.791044776117834 3.0 0.0
2.089552238804087 3.0 0.0
2.388059701490418 3.0 0.0
2.686567164176777 3.0 0.0
2.985074626863136 3.0 0.0
3.283582089549494 3.0 0.0
3.582089552235852 3.0 0.0
3.880597014922211 3.0 0.0
4.179104477608569 3.0 0.0
4.477611940294928 3.0 0.0
4.776119402981237 3.0 0.0
5.074626865667346 3.0 0.0
5.373134328353175 3.0 0.0
5.671641791038871 3.0 0.0
5.970149253724567 3.0 0.0
6.268656716410264 3.0 0.0
6.56716417909596 3.0 0.0
6.865671641781655 3.0 0.0
7.164179104467352 3.0 0.0
7.462686567153049 3.0 0.0
7.761194029838745 3.0 0.0
8.05970149252444 3.0 0.0
8.358208955210136 3.0 0.0
8.656716417895833 3.0 0.0
8.95522388058153 3.0 0.0
9.253731343267225 3.0 0.0
9.552238805952921 3.0 0.0
9.850746268638618 3.0 0.0
10.14925373132431 3.0 0.0
10.44776119401001 3.0 0.0
10.7462686566957 3.0 0.0
11.0447761193814 3.0 0.0
11.34328358206709 3.0 0.0
11.64179104475279 3.0 0.0
11.94029850743848 3.0 0.0
12.23880597012418 3.0 0.0
12.53731343280987 3.0 0.0
12.83582089549557 3.0 0.0
13.13432835818127 3.0 0.0
13.43283582086696 3.0 0.0
13.73134328355265 3.0 0.0
14.02985074623835 3.0 0.0
14.32835820892405 3.0 0.0
14.62686567160974 3.0 0.0
14.92537313429544 3.0 0.0
15.22388059698113 3.0 0.0
15.52238805966683 3.0 0.0
15.82089552235252 3.0 0.0
16.11940298503862 3.0 0.0
16.41791044772535 3.0 0.0
16.71641791041237 3.0 0.0
17.01492537309939 3.0 0.0
17.31343283578641 3.0 0.0
17.61194029847344 3.0 0.0
17.91044776116046 3.0 0.0
18.20895522384748 3.0 0.0
18.5074626865345 3.0 0.0
18.80597014922152 3.0 0.0
19.10447761190854 3.0 0.0
19.40298507459556 3.0 0.0
19.70149253728258 3.0 0.0
19.9999999999696 3.0 0.0
20.29850746265662 3.0 0.0
20.59701492534364 3.0 0.0
20.89552238803066 3.0 0.0
21.19402985071768 3.0 0.0
21.49253731340471 3.0 0.0
21.79104477609173 3.0 0.0
22.08955223877875 3.0 0.0
22.38805970146577 3.0 0.0
22.68656716415279 3.0 0.0
22.98507462683981 3.0 0.0
23.28358208952683 3.0 0.0
23.58208955221385 3.0 0.0
23.88059701490088 3.0 0.0
24.1791044775879 3.0 0.0
24.47761194027491 3.0 0.0
24.77611940296193 3.0 0.0
25.07462686564896 3.0 0.0
25.37313432833598 3.0 0.0
25.671641791023 3.0 0.0
25.97014925371002 3.0 0.0
26.26865671639704 3.0 0.0
26.56716417908406 3.0 0.0
26.86567164177108 3.0 0.0
27.1641791044581 3.0 0.0
27.46268656714512 3.0 0.0
27.76119402983214 3.0 0.0
28.05970149251916 3.0 0.0
28.35820895520619 3.0 0.0
28.65671641789321 3.0 0.0
28.95522388058023 3.0 0.0
29.25373134326725 3.0 0.0
29.55223880595426 3.0 0.0
29.85074626864129 3.0 0.0
30.14925373132831 3.0 0.0
30.44776119401533 3.0 0.0
30.74626865670236 3.0 0.0
31.04477611938937 3.0 0.0
31.34328358207639 3.0 0.0
31.64179104476341 3.0 0.0
31.94029850745043 3.0 0.0
32.23880597013746 3.0 0.0
32.53731343282448 3.0 0.0
32.8358208955115 3.0 0.0
33.13432835819852 3.0 0.0
33.43283582088554 3.0 0.0
33.73134328357256 3.0 0.0
34.02985074625958 3.0 0.0
34.3283582089466 3.0 0.0
34.62686567163362 3.0 0.0
34.92537313432064 3.0 0.0
35.22388059700766 3.0 0.0
35.52238805969468 3.0 0.0
35.8208955223817 3.0 0.0
36.11940298506872 3.0 0.0
36.41791044775574 3.0 0.0
36.71641791044276 3.0 0.0
37.01492537312978 3.0 0.0
37.31343283581681 3.0 0.0
37.61194029850382 3.0 0.0
37.91044776119085 3.0 0.0
38.20895522387787 3.0 0.0
38.5074626865649 3.0 0.0
38.80597014925192 3.0 0.0
39.10447761193894 3.0 0.0
39.40298507462596 3.0 0.0
39.70149253731298 3.0 0.0
40.0 2.700000000001935 0.0
40.0 2.400000000003002 0.0
40.0 2.100000000002161 0.0
40.0 1.800000000002828 0.0
40.0 1.500000000004164 0.0
40.0 1.200000000003365 0.0
40.0 0.9000000000025241 0.0
40.0 0.6000000000016827 0.0
40.0 0.3000000000008414 0.0
39.70000000000115 0.0 0.0
39.40000000000229 0.0 0.0
39.10000000000343 0.0 0.0
38.80000000000458 0.0 0.0
38.50000000000572 0.0 0.0
38.20000000000687 0.0 0.0
37.90000000000801 0.0 0.0
37.60000000000915 0.0 0.0
37.3000000000103 0.0 0.0
37.00000000001144 0.0 0.0
36.70000000001259 0.0 0.0
36.40000000001373 0.0 0.0
36.10000000001487 0.0 0.0
35.80000000001602 0.0 0.0
35.50000000001717 0.0 0.0
35.20000000001831 0.0 0.0
34.90000000001945 0.0 0.0
34.6000000000206 0.0 0.0
34.30000000002174 0.0 0.0
34.00000000002289 0.0 0.0
33.70000000002403 0.0 0.0
33.40000000002517 0.0 0.0
33.10000000002632 0.0 0.0
32.80000000002747 0.0 0.0
32.50000000002861 0.0 0.0
32.20000000002975 0.0 0.0
31.9000000000309 0.0 0.0
31.60000000003204 0.0 0.0
31.30000000003319 0.0 0.0
31.00000000003433 0.0 0.0
30.70000000003548 0.0 0.0
30.40000000003662 0.0 0.0
30.10000000003777 0.0 0.0
29.80000000003891 0.0 0.0
29.50000000004005 0.0 0.0
29.2000000000412 0.0 0.0
28.90000000004234 0.0 0.0
28.60000000004348 0.0 0.0
28.30000000004463 0.0 0.0
28.00000000004577 0.0 0.0
27.70000000004692 0.0 0.0
27.40000000004806 0.0 0.0
27.1000000000492 0.0 0.0
26.80000000005035 0.0 0.0
26.50000000005149 0.0 0.0
26.20000000005263 0.0 0.0
25.90000000005378 0.0 0.0
25.60000000005492 0.0 0.0
25.30000000005606 0.0 0.0
25.00000000005721 0.0 0.0
24.70000000005835 0.0 0.0
24.40000000005949 0.0 0.0
24.10000000006064 0.0 0.0
23.80000000006178 0.0 0.0
23.50000000006293 0.0 0.0
23.20000000006407 0.0 0.0
22.90000000006521 0.0 0.0
22.60000000006636 0.0 0.0
22.3000000000675 0.0 0.0
22.00000000006795 0.0 0.0
21.70000000006683 0.0 0.0
21.40000000006501 0.0 0.0
21.1000000000632 0.0 0.0
20.80000000006138 0.0 0.0
20.50000000005956 0.0 0.0
20.20000000005775 0.0 0.0
19.90000000005593 0.0 0.0
19.60000000005412 0.0 0.0
19.3000000000523 0.0 0.0
19.00000000005049 0.0 0.0
18.70000000004867 0.0 0.0
18.40000000004686 0.0 0.0
18.10000000004504 0.0 0.0
17.80000000004323 0.0 0.0
17.50000000004141 0.0 0.0
17.2000000000396 0.0 0.0
16.90000000003779 0.0 0.0
16.60000000003597 0.0 0.0
16.30000000003416 0.0 0.0
16.00000000003234 0.0 0.0
15.70000000003053 0.0 0.0
15.40000000002871 0.0 0.0
15.1000000000269 0.0 0.0
14.80000000002508 0.0 0.0
14.50000000002327 0.0 0.0
14.20000000002145 0.0 0.0
13.90000000001964 0.0 0.0
13.60000000001783 0.0 0.0
13.30000000001601 0.0 0.0
13.0000000000142 0.0 0.0
12.70000000001238 0.0 0.0
12.40000000001056 0.0 0.0
12.10000000000875 0.0 0.0
11.80000000000694 0.0 0.0
11.50000000000512 0.0 0.0
11.20000000000331 0.0 0.0
10.90000000000149 0.0 0.0
10.59999999999968 0.0 0.0
10.29999999999787 0.0 0.0
9.99999999999605 0.0 0.0
9.699999999994237 0.0 0.0
9.399999999992424 0.0 0.0
9.099999999990604 0.0 0.0
8.799999999988792 0.0 0.0
8.499999999986976 0.0 0.0
8.199999999985256 0.0 0.0
7.899999999985106 0.0 0.0
7.599999999986252 0.0 0.0
7.299999999987392 0.0 0.0
6.999999999988546 0.0 0.0
6.699999999989686 0.0 0.0
6.399999999990833 0.0 0.0
6.099999999991979 0.0 0.0
5.799999999993126 0.0 0.0
5.499999999994273 0.0 0.0
5.199999999995413 0.0 0.0
4.899999999996567 0.0 0.0
4.599999999997706 0.0 0.0
4.299999999998853 0.0 0.0
4.0 0.2499999999994109 0.0
4.0 0.4999999999986918 0.0
4.0 0.7499999999993401 0.0
3.714285714284526 1.0 0.0
3.428571428569844 1.0 0.0
3.142857142857542 1.0 0.0
2.85714285714524 1.0 0.0
2.571428571432937 1.0 0.0
2.285714285720635 1.0 0.0
2.000000000008246 1.0 0.0
1.714285714292858 1.0 0.0
1.428571428577383 1.0 0.0
1.142857142861906 1.0 0.0
0.8571428571464295 1.0 0.0
0.5714285714309533 1.0 0.0
0.2857142857154762 1.0 0.0
5.440895737063815 1.5321810752057226 0.0
38.359631109480205 1.5447862624578594 0.0
36.55156595862513 1.5678345293898692 0.0
34.78710000302187 1.5642234316343742 0.0
32.9971954225337 1.5616773154845147 0.0
31.206213093159832 1.5616241273381726 0.0
29.41743466562333 1.560813469344192 0.0
27.626772764562254 1.5595442904607533 0.0
25.8345099987122 1.5596010883176028 0.0
24.038234267385175 1.5598722611419031 0.0
22.28410800461182 1.5615988969890857 0.0
20.49887470353422 1.5590348043573192 0.0
18.706375623998746 1.5616894963191854 0.0
16.914750360834766 1.563910776410858 0.0
15.128618847375977 1.5556246456016476 0.0
13.33374344126039 1.5511890511266595 0.0
7.030759682398678 1.534442092687481 0.0
11.566049076409328 1.4969212260342677 0.0
8.761848711004971 1.5139156602083867 0.0
10.122611928795317 1.6236584616968261 0.0
4.526369532015368 1.9188661001514808 0.0
3.5185905812745153 2.0252610404151303 0.0
0.8929602934338949 2.0484837616277805 0.0
2.1303862954741786 2.0128365285831764 0.0
37.45664389250272 1.9215745158530688 0.0
35.76980667423149 1.9566969156967804 0.0
33.97560565425424 1.951129826056218 0.0
32.18468257484926 1.9502423738014634 0.0
30.393953542480887 1.9506962134922115 0.0
28.603869422410817 1.9490708688174188 0.0
26.81243432007293 1.9489436858605451 0.0
25.020320832831715 1.9489079511655873 0.0
23.222921081222125 1.9532226644536412 0.0
21.438577064798203 1.9510574224417399 0.0
19.648320628121976 1.9527003755547225 0.0
17.85646983812719 1.9551347438424853 0.0
16.066386904528457 1.9524591667910451 0.0
14.276194644033797 1.949504085905422 0.0
12.469240233774332 1.9331189870611798 0.0
7.903765740008337 1.9170293474259146 0.0
32.11693620250729 1.0153772846462719 0.0
33.9052719667752 1.018314117442152 0.0
30.327339895719167 1.0165516066818012 0.0
35.685997274784626 1.0240920134690144 0.0
37.47826336526687 0.9143900830224962 0.0
28.544382306259507 1.008832531079308 0.0
26.750770900913658 1.008697819364698 0.0
24.956031422002802 1.0087920104531238 0.0
23.15163741793711 1.0082816543559 0.0
21.376334792735403 0.9954454147104485 0.0
19.585082890394872 1.0071215101888775 0.0
17.79121251690518 1.0187009575384915 0.0
16.01281168302144 1.0009471538479193 0.0
14.223190832776599 0.9947506625384457 0.0
12.435116110262122 0.9533072381305729 0.0
7.904118015944833 0.9516540425309552 0.0
6.260075186818547 0.9882083828748837 0.0
6.226199612153765 2.037271304307933 0.0
4.831970914683074 0.828771924662698 0.0
[...]
POINT_DATA 1869
VECTORS vector double
0.0 0.0 0.0
0.0 0.0 0.0
0.0 0.0 0.0
0.0 0.0 0.0
0.0 0.0 0.0
0.0 0.0 0.0
0.734693877556 0.0 0.0
1.22448979592 0.0 0.0
1.4693877551 0.0 0.0
1.4693877551 0.0 0.0
1.22448979592 0.0 0.0
0.73469387755 0.0 0.0
0.0 0.0 0.0
0.0 0.0 0.0
0.0 0.0 0.0
0.0 0.0 0.0
0.0 0.0 0.0
0.0 0.0 0.0
0.0 0.0 0.0
0.0 0.0 0.0
0.0 0.0 0.0
0.0 0.0 0.0
0.0 0.0 0.0
0.0 0.0 0.0
0.0 0.0 0.0
0.0 0.0 0.0
0.0 0.0 0.0
0.0 0.0 0.0
0.0 0.0 0.0
0.0 0.0 0.0
0.0 0.0 0.0
0.0 0.0 0.0
0.0 0.0 0.0
0.0 0.0 0.0
0.0 0.0 0.0
0.0 0.0 0.0
0.0 0.0 0.0
0.0 0.0 0.0
0.0 0.0 0.0
0.0 0.0 0.0
0.0 0.0 0.0
0.0 0.0 0.0
0.0 0.0 0.0
0.0 0.0 0.0
0.0 0.0 0.0
0.0 0.0 0.0
0.0 0.0 0.0
0.0 0.0 0.0
0.0 0.0 0.0
0.0 0.0 0.0
0.0 0.0 0.0
0.0 0.0 0.0
0.0 0.0 0.0
0.0 0.0 0.0
0.0 0.0 0.0
0.0 0.0 0.0
0.0 0.0 0.0
0.0 0.0 0.0
0.0 0.0 0.0
0.0 0.0 0.0
0.0 0.0 0.0
0.0 0.0 0.0
0.0 0.0 0.0
0.0 0.0 0.0
0.0 0.0 0.0
0.0 0.0 0.0
0.0 0.0 0.0
0.0 0.0 0.0
0.0 0.0 0.0
0.0 0.0 0.0
0.0 0.0 0.0
0.0 0.0 0.0
0.0 0.0 0.0
0.0 0.0 0.0
0.0 0.0 0.0
0.0 0.0 0.0
0.0 0.0 0.0
0.0 0.0 0.0
0.0 0.0 0.0
0.0 0.0 0.0
0.0 0.0 0.0
0.0 0.0 0.0
0.0 0.0 0.0
0.0 0.0 0.0
0.0 0.0 0.0
0.0 0.0 0.0
0.0 0.0 0.0
0.0 0.0 0.0
0.0 0.0 0.0
0.0 0.0 0.0
0.0 0.0 0.0
0.0 0.0 0.0
0.0 0.0 0.0
0.0 0.0 0.0
0.0 0.0 0.0
0.0 0.0 0.0
0.0 0.0 0.0
0.0 0.0 0.0
0.0 0.0 0.0
0.0 0.0 0.0
0.0 0.0 0.0
0.0 0.0 0.0
0.0 0.0 0.0
0.0 0.0 0.0
0.0 0.0 0.0
0.0 0.0 0.0
0.0 0.0 0.0
0.0 0.0 0.0
0.0 0.0 0.0
0.0 0.0 0.0
0.0 0.0 0.0
0.0 0.0 0.0
0.0 0.0 0.0
0.0 0.0 0.0
0.0 0.0 0.0
0.0 0.0 0.0
0.0 0.0 0.0
0.0 0.0 0.0
0.0 0.0 0.0
0.0 0.0 0.0
0.0 0.0 0.0
0.0 0.0 0.0
0.0 0.0 0.0
0.0 0.0 0.0
0.0 0.0 0.0
0.0 0.0 0.0
0.0 0.0 0.0
0.0 0.0 0.0
0.0 0.0 0.0
0.0 0.0 0.0
0.0 0.0 0.0
0.0 0.0 0.0
0.0 0.0 0.0
0.0 0.0 0.0
0.0 0.0 0.0
0.0 0.0 0.0
0.0 0.0 0.0
0.0 0.0 0.0
0.0 0.0 0.0
0.0 0.0 0.0
0.0 0.0 0.0
0.0 0.0 0.0
0.0 0.0 0.0
0.0 0.0 0.0
0.0 0.0 0.0
0.372935495745 0.0213178026015 0.0
0.644846745821 0.00586337418632 0.0
0.837553424068 0.00752607556338 0.0
0.945988559126 0.00152023970954 0.0
0.977057965089 -8.64335698089e-05 0.0
0.943578207812 -0.000754391149385 0.0
0.840518618298 -0.00817642950456 0.0
0.656283066393 -0.00447732054187 0.0
0.376724251853 -0.0205509505915 0.0
0.0 0.0 0.0
0.0 0.0 0.0
0.0 0.0 0.0
0.0 0.0 0.0
0.0 0.0 0.0
0.0 0.0 0.0
0.0 0.0 0.0
0.0 0.0 0.0
0.0 0.0 0.0
0.0 0.0 0.0
0.0 0.0 0.0
0.0 0.0 0.0
0.0 0.0 0.0
0.0 0.0 0.0
0.0 0.0 0.0
0.0 0.0 0.0
0.0 0.0 0.0
0.0 0.0 0.0
0.0 0.0 0.0
0.0 0.0 0.0
0.0 0.0 0.0
0.0 0.0 0.0
0.0 0.0 0.0
0.0 0.0 0.0
0.0 0.0 0.0
0.0 0.0 0.0
0.0 0.0 0.0
0.0 0.0 0.0
0.0 0.0 0.0
0.0 0.0 0.0
0.0 0.0 0.0
0.0 0.0 0.0
0.0 0.0 0.0
0.0 0.0 0.0
0.0 0.0 0.0
0.0 0.0 0.0
0.0 0.0 0.0
0.0 0.0 0.0
0.0 0.0 0.0
0.0 0.0 0.0
0.0 0.0 0.0
0.0 0.0 0.0
0.0 0.0 0.0
0.0 0.0 0.0
0.0 0.0 0.0
0.0 0.0 0.0
0.0 0.0 0.0
0.0 0.0 0.0
0.0 0.0 0.0
0.0 0.0 0.0
0.0 0.0 0.0
0.0 0.0 0.0
0.0 0.0 0.0
0.0 0.0 0.0
0.0 0.0 0.0
0.0 0.0 0.0
0.0 0.0 0.0
0.0 0.0 0.0
0.0 0.0 0.0
0.0 0.0 0.0
0.0 0.0 0.0
0.0 0.0 0.0
0.0 0.0 0.0
0.0 0.0 0.0
0.0 0.0 0.0
0.0 0.0 0.0
0.0 0.0 0.0
0.0 0.0 0.0
0.0 0.0 0.0
0.0 0.0 0.0
0.0 0.0 0.0
0.0 0.0 0.0
0.0 0.0 0.0
0.0 0.0 0.0
0.0 0.0 0.0
0.0 0.0 0.0
0.0 0.0 0.0
0.0 0.0 0.0
0.0 0.0 0.0
0.0 0.0 0.0
0.0 0.0 0.0
0.0 0.0 0.0
0.0 0.0 0.0
0.0 0.0 0.0
0.0 0.0 0.0
0.0 0.0 0.0
0.0 0.0 0.0
0.0 0.0 0.0
0.0 0.0 0.0
0.0 0.0 0.0
0.0 0.0 0.0
0.0 0.0 0.0
0.0 0.0 0.0
0.0 0.0 0.0
0.0 0.0 0.0
0.0 0.0 0.0
0.0 0.0 0.0
0.0 0.0 0.0
0.0 0.0 0.0
0.0 0.0 0.0
0.0 0.0 0.0
0.0 0.0 0.0
0.0 0.0 0.0
0.0 0.0 0.0
0.0 0.0 0.0
0.0 0.0 0.0
0.0 0.0 0.0
0.0 0.0 0.0
0.0 0.0 0.0
0.0 0.0 0.0
0.0 0.0 0.0
0.0 0.0 0.0
0.0 0.0 0.0
0.0 0.0 0.0
0.0 0.0 0.0
0.0 0.0 0.0
0.0 0.0 0.0
0.0 0.0 0.0
0.0 0.0 0.0
0.0 0.0 0.0
0.0 0.0 0.0
0.0 0.0 0.0
0.0 0.0 0.0
0.0 0.0 0.0
0.0 0.0 0.0
0.0 0.0 0.0
0.0 0.0 0.0
0.0 0.0 0.0
0.0 0.0 0.0
0.0 0.0 0.0
0.0 0.0 0.0
0.0 0.0 0.0
0.0 0.0 0.0
0.0 0.0 0.0
0.0 0.0 0.0
1.06861180038 -0.236934187949 0.0
0.943626225145 -0.00285691129385 0.0
0.937001970692 0.00243195235466 0.0
0.941603674499 0.00109012185589 0.0
0.94141623265 -0.000104202684416 0.0
0.941187908576 0.000163598248193 0.0
0.93970507822 7.70180812638e-05 0.0
0.93957890124 -0.000318969843167 0.0
0.93955074863 -0.000483808973555 0.0
0.939703416178 -0.000519461041073 0.0
0.939745522654 0.00103852593015 0.0
0.938137297274 0.000657448120753 0.0
0.938200494843 -0.000421097700781 0.0
0.939519583332 -0.000664450216592 0.0
0.940459793642 -0.000236045278394 0.0
0.940951860216 -0.00272758326543 0.0
0.948589241972 -0.0309238551809 0.0
0.938374980361 -0.0016673187528 0.0
0.940703843127 0.00419281973217 0.0
0.932510817884 0.00273253694222 0.0
1.31801692172 -0.190366607951 0.0
1.46014358316 -0.0858207279323 0.0
1.48747914664 0.00243342929769 0.0
1.47555591459 -0.0120569651145 0.0
0.895163294855 -0.0031823800989 0.0
0.885877611461 0.00621946675897 0.0
0.886879360729 0.00279481827699 0.0
0.88668909162 0.00236037194369 0.0
0.88567359713 0.00274528008823 0.0
0.885308135269 0.00240003584756 0.0
0.885223525931 0.00223817292126 0.0
0.88535945675 0.00206928397038 0.0
0.884403539024 0.00234008687167 0.0
0.883559177151 0.00276464167373 0.0
0.882196522784 0.00213164076736 0.0
0.882367128964 0.00161067166286 0.0
0.884327247076 0.00190886997124 0.0
0.886038591796 0.00126711394269 0.0
0.890960142998 -0.00329318674664 0.0
0.896295248749 0.00448505173361 0.0
0.880759196128 0.000338204887993 0.0
0.881116979937 0.000751042662917 0.0
0.881114119541 0.00184945908245 0.0
0.880901407396 0.00130271972194 0.0
0.83933839857 -0.00164342342208 0.0
0.87892869928 0.00060165889459 0.0
0.878990422603 0.000420578126301 0.0
0.878893295668 0.000188544240858 0.0
0.878699347106 0.00113690955522 0.0
0.871474630436 0.0027840204063 0.0
0.874879520014 0.000893579760834 0.0
0.880514910215 -0.00109735856259 0.0
0.876657414219 0.00047863744345 0.0
0.873766969592 -0.000248957451138 0.0
0.855487144913 -0.00311210623356 0.0
0.856136267624 0.00313757783699 0.0
0.81670903073 -0.11125236563 0.0
0.933545856099 -0.0634759568686 0.0
0.416878744225 -0.199588392139 0.0
0.848149716701 -0.000830450650508 0.0
0.853534424881 0.00387044711849 0.0
0.835542506333 -0.00655554448096 0.0
0.840632078183 0.00366734371924 0.0
0.846904379224 -0.0058200420529 0.0
0.808717946344 0.00769101492821 0.0
0.965213311575 -0.0945004720312 0.0
0.771630092666 -0.00908727819493 0.0
0.7604015721 -0.00877112600286 0.0
0.759616416921 -0.00759121920716 0.0
0.779126795062 -0.00625107606938 0.0
0.773560044528 -0.00762073707232 0.0
0.772392987101 -0.006195155417 0.0
0.77001395605 -0.00274890937129 0.0
0.772195251594 -0.00451553035011 0.0
0.772336995842 -0.00442710761437 0.0
0.772392594013 -0.00430943132723 0.0
0.772614483594 -0.00402861288852 0.0
0.776006425865 -7.69011608604e-05 0.0
0.775386658626 -0.000586353629508 0.0
0.805889139945 -0.00274979695519 0.0
0.776301746692 0.000974475423023 0.0
0.766999948176 0.00479558761902 0.0
0.760261359662 -0.00218152140959 0.0
0.764326657523 -0.00778042749771 0.0
0.808639432054 0.0013484962497 0.0
0.756597083771 0.00542308292255 0.0
0.756315510781 0.004511957988 0.0
0.755926772442 0.00450941363387 0.0
0.754941099537 0.00461169982289 0.0
0.799948074676 0.00347076622908 0.0
0.754815758924 0.004429377473 0.0
0.754778465674 0.00434075919303 0.0
0.755102127415 0.00426596208052 0.0
0.748978628286 0.0048227179653 0.0
0.748258213691 0.00476733114048 0.0
0.747612155845 0.0043570712583 0.0
0.748120866137 0.00425538507065 0.0
0.750033927302 0.00447510487446 0.0
0.753574396613 0.0026048376969 0.0
0.787531754083 -0.00685340603502 0.0
0.727882268017 -0.00175754008897 0.0
0.738734636442 -0.000952355971562 0.0
1.40474442332 -0.0340958740282 0.0
0.493049248558 -0.150922338405 0.0
1.2248550891 -0.0217958832391 0.0
0.763229143106 -0.000957199154638 0.0
1.1834821698 0.0104930596571 0.0
1.36074057172 -0.157107360372 0.0
0.709588584878 0.00164890234536 0.0
1.32372249993 -0.0203807996403 0.0
1.03394805049 -0.316256679493 0.0
1.07368606829 -0.058799800073 0.0
0.955347550252 -0.0021314776107 0.0
0.688087186065 -0.0102190920591 0.0
0.680576995739 -0.00651241613155 0.0
0.678891028712 -0.00652670174258 0.0
0.677712423888 -0.00649933417519 0.0
0.678060009711 -0.00619521012749 0.0
0.679179437357 -0.00607337278369 0.0
0.680809379794 -0.00623412288797 0.0
0.681373937363 -0.0063083088361 0.0
0.681309298986 -0.0062235542393 0.0
0.681457122267 -0.00611892729534 0.0
0.681971770122 -0.00605876562962 0.0
0.682601216256 -0.00616856057282 0.0
0.683007593294 -0.00578899517795 0.0
0.668770849081 0.00826252918697 0.0
0.687996657549 0.00202946984623 0.0
0.937122182216 -0.000251868950489 0.0
0.938025986307 0.00319932044856 0.0
0.693092681426 -0.0131923843414 0.0
0.696041655684 -0.0116706993296 0.0
0.69453938322 -0.0143152794799 0.0
0.705265553484 -0.0159235464869 0.0
1.15265008696 0.0190045549611 0.0
0.702286515334 -0.0149257612885 0.0
0.708509068584 0.00175811089227 0.0
0.71485126618 0.000830565919198 0.0
0.715094120227 0.00104612377018 0.0
0.715027197067 0.00114704651048 0.0
0.712066910312 -0.000352849153224 0.0
0.716325005017 0.00165860317958 0.0
0.713182090742 -0.00118596114537 0.0
0.713274989303 -0.00127499659998 0.0
1.14022476435 -0.00707319564701 0.0
0.753768740056 -0.0371224116895 0.0
0.943869851824 -0.00105464865553 0.0
0.943878930868 -0.000341087470278 0.0
0.943258050015 -0.00032392224474 0.0
0.942475066245 -0.00102073705653 0.0
0.941713934145 0.00148519098245 0.0
0.942423646735 -0.00127103892864 0.0
0.942408954168 -0.00148619291255 0.0
0.942566434348 -0.00110697223569 0.0
0.941157846715 -8.51270942753e-05 0.0
0.939856137674 -0.00105512697997 0.0
0.940638117017 -0.0020021858103 0.0
0.942396916734 -0.00175763341018 0.0
0.942635192181 -0.00222178722578 0.0
0.941474066572 -0.00542519204003 0.0
0.941729024933 -0.00129581873629 0.0
0.940414147832 -0.0055587294774 0.0
0.938783876403 0.000615812996726 0.0
0.986107244614 -0.155660796776 0.0
0.60586795258 -0.0149704929459 0.0
0.943634091466 0.00115527882068 0.0
0.943590934408 0.000907938023493 0.0
0.942336167346 0.00156374799173 0.0
0.94329844243 0.0028180505084 0.0
0.941964759808 0.000955371288928 0.0
0.941936302532 0.000780080029259 0.0
0.94198104564 0.000547469018703 0.0
0.942318691985 0.000939740618009 0.0
0.940658935567 0.00121022098291 0.0
0.940165803395 1.42008452094e-05 0.0
0.613768466423 -0.0161563786666 0.0
0.94135867334 -0.000630323731221 0.0
0.942653214884 0.000134657885385 0.0
0.943080219172 -0.00129645518477 0.0
0.939981340905 -0.00308254416992 0.0
0.942373058648 0.00425683529622 0.0
0.831955475369 -0.0700009917407 0.0
1.16169276951 -0.286703411535 0.0
0.594025577082 0.000134109968715 0.0
0.613522751395 0.00487255406996 0.0
1.19665245626 -0.0397038644901 0.0
0.0201719680749 -0.0299103358806 0.0
0.580602532876 -0.00417259600796 0.0
0.605107873042 -0.00440880340521 0.0
0.612594023743 0.00505485016931 0.0
0.596516080919 0.00772159479212 0.0
1.05713176895 -0.0134213229218 0.0
0.573343980967 -6.51029133694e-05 0.0
0.596979341436 -0.0013100488567 0.0
0.574822752317 -9.40707886785e-05 0.0
0.642730775437 -0.00687289429405 0.0
0.645213796401 0.00555770814045 0.0
0.618445546059 -0.0021850303274 0.0
0.646089515686 0.00388419039256 0.0
0.645819134703 0.00374202638646 0.0
0.644959778344 0.00388464382682 0.0
0.644785505556 0.00374512359952 0.0
0.644678559971 0.00368289231914 0.0
0.644936455342 0.00362361167195 0.0
0.640492806597 0.00393950324538 0.0
0.640194473958 0.00397936698546 0.0
0.63913855534 0.00374393809557 0.0
0.639050588655 0.00358290553635 0.0
0.640765818886 0.00369083177395 0.0
0.642699797564 0.00325986462172 0.0
0.620763445833 0.00652082003714 0.0
0.654603214886 -0.00454592788091 0.0
0.574946558553 1.13553006967e-05 0.0
0.624738189338 0.00293525534379 0.0
0.57218178301 0.00671940631191 0.0
0.574866364767 0.000121425494874 0.0
0.566979482939 0.00707483541356 0.0
1.18804427441 -0.0107110463565 0.0
0.582138385362 0.00430947852366 0.0
0.583542006856 -0.00814707427255 0.0
0.573468261081 0.0060980327121 0.0
0.579913918745 0.00317884837774 0.0
0.581642683976 0.00453017065081 0.0
0.586076499056 0.00460096619103 0.0
0.531445018701 -0.00228873677421 0.0
1.07590207198 -0.00576364886709 0.0
1.09017949894 0.0154222479208 0.0
0.951231823096 -0.0822080733942 0.0
0.900693245037 -0.000465511540631 0.0
0.565866852423 0.0011960257645 0.0
0.562722868488 0.00169494404746 0.0
1.03736874985 -0.0283618141693 0.0
0.610898130121 0.00237535019488 0.0
0.917999100498 -0.0369089821902 0.0
0.627990741052 -0.00152871160354 0.0
0.945165007433 -0.00497593490513 0.0
0.495790056383 -0.0769445950626 0.0
0.591806695315 0.00185713278492 0.0
0.608479773405 0.000655029737466 0.0
0.616675888001 0.00211561702253 0.0
0.899951476756 -0.000230806745473 0.0
0.890558894241 -0.00132540185617 0.0
0.897735482207 0.00349709538978 0.0
1.03339337541 -0.12272609515 0.0
0.888234400708 0.0046070544719 0.0
0.89136544081 -0.000816678156205 0.0
0.891104268169 -0.00163687776839 0.0
0.890505253274 -0.00139591533026 0.0
0.889621182897 -0.00153076625939 0.0
0.889514660642 -0.00176791204307 0.0
0.889533415199 -0.00191294135708 0.0
0.889603852643 -0.00185950517856 0.0
0.888127962049 -0.00122936889682 0.0
0.886750391821 -0.0016281689313 0.0
0.886669666674 -0.00233642864292 0.0
0.888063903529 -0.00231247026592 0.0
0.889807411141 -0.00226869487506 0.0
0.892999157721 -0.00558698791094 0.0
0.892503902792 -0.0037595807883 0.0
0.89439453952 -0.00180265124694 0.0
0.896552125713 -0.00252477510905 0.0
0.895045880485 -0.00250495560659 0.0
0.894182443041 -0.00121715624556 0.0
0.897296451593 -0.00044587882635 0.0
0.903822126337 -0.0016642911427 0.0
0.905889987478 -0.000325104898516 0.0
0.903930379333 -0.00145944850503 0.0
0.905738701012 -0.00148592835891 0.0
0.903957728794 -0.00132098899999 0.0
0.905791889297 -0.00135607006436 0.0
0.90450716561 -0.000690124123449 0.0
0.1845258658 -0.0902219122514 0.0
0.888393635285 0.000279181799477 0.0
0.897622875576 -0.00714860268123 0.0
0.905356031028 0.00841426508966 0.0
0.873178555089 -0.0452883382641 0.0
0.543039567113 -0.00440551683706 0.0
0.537234632568 0.00511643589427 0.0
0.332479954226 -0.188262394151 0.0
0.87957784075 -0.00614971606491 0.0
0.8787751279 0.00568540539294 0.0
0.885037846211 -0.00253270724696 0.0
0.631553075183 -0.00359516383745 0.0
0.721487169396 -0.242755139651 0.0
0.87564049675 0.000269337335079 0.0
0.567833088915 -0.00783320750146 0.0
0.818580660219 -0.209377023418 0.0
1.48575581666 0.00768416705001 0.0
1.03748458208 0.00120534236418 0.0
0.885070730345 0.00260810236937 0.0
0.907202877913 0.00222374617957 0.0
0.902584934832 0.000683732361972 0.0
0.907730760199 -0.00501093321921 0.0
0.899940284229 -0.00562759697493 0.0
1.46126102363 -0.0154888385784 0.0
0.991447766945 -0.00065405259024 0.0
0.901775305859 0.00198718680243 0.0
0.893870609349 -0.000830581965635 0.0
0.893633860285 -0.000991244273282 0.0
0.893848253794 0.00107678142692 0.0
0.892354687993 -0.000649065151022 0.0
0.892194750296 -0.00102956568957 0.0
0.907442258312 0.00262450348769 0.0
0.892138669963 -0.00116869196184 0.0
0.892374470405 -0.00130993089831 0.0
0.886533330691 -0.000402476137419 0.0
0.885696589194 -0.000269664008286 0.0
0.884889522106 -0.00099383132695 0.0
0.885446383333 -0.00134338827362 0.0
0.887422623911 -0.000955719304439 0.0
0.889418686623 -0.00238831887085 0.0
0.883230793379 -0.00528742409019 0.0
0.879395573565 0.00636104478107 0.0
0.917153604269 -0.00504988691347 0.0
0.910809360826 -0.0133947927276 0.0
0.914094125743 -0.00547587431456 0.0
0.916586671993 -0.00304645717598 0.0
0.9190298161 -0.0033314436233 0.0
0.917459627506 -0.00298707064847 0.0
0.916577721863 -0.00169101421746 0.0
0.917541492364 -0.000646268967445 0.0
0.919174977013 0.000533236048057 0.0
0.921140345892 -0.000323212594542 0.0
0.921003014189 -0.00141680647514 0.0
0.919008035929 -0.00231632044504 0.0
0.921102403269 -0.000705077363351 0.0
0.918923991741 -0.00237561720421 0.0
0.919076232733 -0.0018257387855 0.0
0.918977703123 -0.00219564579875 0.0
0.458447742307 0.023951055667 0.0
0.517645115857 -0.00243498853794 0.0
0.443557855583 0.00795665591509 0.0
0.443133090689 0.00773201578236 0.0
0.442817376446 0.00772649297266 0.0
0.44226393986 0.00775442996228 0.0
0.442117074215 0.00770252951158 0.0
0.442105352994 0.0076738308346 0.0
0.442212996376 0.00762051259727 0.0
0.438989440201 0.00783333214996 0.0
0.43834893478 0.00778745789838 0.0
0.437909076756 0.00765440581928 0.0
0.438353274993 0.00766385645643 0.0
0.439478601159 0.00775602241076 0.0
0.443854019584 0.00670795150018 0.0
1.40112827578 -0.136924985249 0.0
0.458918279368 0.016374612586 0.0
0.958120264682 -0.306159459438 0.0
0.454425301478 0.015303004116 0.0
0.455201887378 0.0152647370241 0.0
0.462730998312 0.0174320786972 0.0
0.463150360484 0.0169287414011 0.0
0.463482324814 0.0168265672995 0.0
0.463392050832 0.0166653631209 0.0
0.462766881712 0.0179371827789 0.0
0.326785516873 -0.0108112180326 0.0
0.48899050634 -0.0108056879276 0.0
0.490459010475 -0.0118513924428 0.0
0.497218457038 -0.00444985733822 0.0
0.458305423519 -0.00840355918857 0.0
0.472567951655 -0.0122704129987 0.0
0.727000083178 -0.0276320702813 0.0
0.546961409357 -0.0362334779247 0.0
0.502121294537 -0.00793145662139 0.0
0.435436512021 -0.00890195518083 0.0
0.419451868213 0.0056355456645 0.0
1.18680194228 -0.155891241071 0.0
0.52694047243 -0.0156553318752 0.0
1.04968886839 -0.0715453644136 0.0
0.522128022244 -0.00821769660871 0.0
0.525242517661 -0.0086236633015 0.0
0.553397294053 -0.010002346802 0.0
0.563815963566 -0.0225170372081 0.0
0.555556270964 -0.0230307840626 0.0
0.359453963012 -0.0255490795896 0.0
0.558543092948 0.0058198663209 0.0
0.56232213112 0.00741529524091 0.0
0.559458016041 0.00536448934959 0.0
0.557905331084 0.00733700595712 0.0
0.540776393817 -0.00483750592014 0.0
0.558163443166 0.00735156265893 0.0
0.558111837095 0.00729539445565 0.0
0.555140434639 0.00766002731546 0.0
0.559474560382 0.00386669199273 0.0
0.513165586419 0.00731664091397 0.0
1.46601999468 -0.0398012074026 0.0
1.48434903003 -0.000697504471337 0.0
0.571319043723 0.0108315647491 0.0
0.573744111368 0.0066547408306 0.0
0.580042351836 0.0018861882938 0.0
0.573425992663 0.00649327261395 0.0
0.571208467687 0.00610205259195 0.0
0.572751637903 0.00658901127946 0.0
0.569799698163 0.00624907727051 0.0
0.57245108125 0.00650320295313 0.0
0.568450143239 0.00615728789501 0.0
0.572319739934 0.00645025183422 0.0
0.568673627944 0.00634319723403 0.0
0.572487006787 0.00640356784853 0.0
0.569772861238 0.00654609034864 0.0
0.57039886117 0.00655279819032 0.0
1.13796189055 -0.204281153355 0.0
0.936966032284 -0.0117242086024 0.0
0.36058674152 -0.00451106747265 0.0
0.364447187686 0.00513043365134 0.0
0.927030497276 -0.228780511127 0.0
0.562825447356 0.003475096927 0.0
1.47715936979 -0.00394221285362 0.0
0.83557672014 0.00742384561062 0.0
0.834455304908 -0.0103828019908 0.0
0.841414727287 -0.00700718881963 0.0
0.847154942074 -0.00705677869608 0.0
0.851151155594 -0.0062749341183 0.0
0.848429170758 -0.00550032639288 0.0
0.844371970537 -0.00440704840674 0.0
0.255795123451 -0.0515992358739 0.0
0.84641437606 -0.00644649701424 0.0
0.846372648054 -0.0065487273465 0.0
0.846483529335 -0.00637103712932 0.0
0.84649850439 -0.00617414900748 0.0
0.848613397416 -0.00404821781036 0.0
0.847757808322 -0.00526899591261 0.0
0.851689836018 -0.00590015475165 0.0
0.84844558434 -0.00455040480135 0.0
0.936974464461 0.00553243792251 0.0
0.932299259247 -0.00262807488624 0.0
0.916831207356 0.00469914224934 0.0
0.918737683986 0.0020013727217 0.0
0.918467577189 0.000813659693724 0.0
0.828347724318 -0.011733414541 0.0
0.565737737536 -0.0260812470553 0.0
0.918092953224 0.000952327479134 0.0
0.916840624369 0.000996813682617 0.0
0.916726800419 0.000657746865856 0.0
0.916705005009 0.000513904794932 0.0
0.916932850112 0.000464446791238 0.0
0.913765417904 0.00137936809921 0.0
0.347111797233 0.0189710109295 0.0
0.345328325987 0.0192266046752 0.0
0.344323051899 0.019103473327 0.0
0.344234433449 0.0191560962192 0.0
0.344813614048 0.0192717874732 0.0
0.345154645166 0.0192837579091 0.0
0.348769972416 0.0195584847461 0.0
0.348584244441 0.0195680561518 0.0
0.348652402978 0.0195900713349 0.0
0.348806143289 0.0196264027127 0.0
0.349303859994 0.0196285399671 0.0
0.349505376432 0.0196483317288 0.0