# vtk DataFile Version 2.0
2D Simulation Python
ASCII
DATASET UNSTRUCTURED_GRID
FIELD FieldData 1
NODES 1 2 int
1869 3447

POINTS 1869 double
0.0 1.0 0.0
0.0 3.0 0.0
40.0 3.0 0.0
40.0 0.0 0.0
4.0 0.0 0.0
4.0 1.0 0.0
0.0 1.285714285716665 0.0
0.0 1.571428571430556 0.0
0.0 1.857142857144446 0.0
0.0 2.142857142858336 0.0
0.0 2.428571428572225 0.0
0.0 2.714285714286111 0.0
0.2985074626863422 3.0 0.0
0.5970149253727002 3.0 0.0
0.8955223880590588 3.0 0.0
1.194029850745382 3.0 0.0
1.492537313431632 3.0 0.0
1.791044776117834 3.0 0.0
2.089552238804087 3.0 0.0
2.388059701490418 3.0 0.0
2.686567164176777 3.0 0.0
2.985074626863136 3.0 0.0
3.283582089549494 3.0 0.0
3.582089552235852 3.0 0.0
3.880597014922211 3.0 0.0
4.179104477608569 3.0 0.0
4.477611940294928 3.0 0.0
4.776119402981237 3.0 0.0
5.074626865667346 3.0 0.0
5.373134328353175 3.0 0.0
5.671641791038871 3.0 0.0
5.970149253724567 3.0 0.0
6.268656716410264 3.0 0.0
6.56716417909596 3.0 0.0
6.865671641781655 3.0 0.0
7.164179104467352 3.0 0.0
7.462686567153049 3.0 0.0
7.761194029838745 3.0 0.0
8.05970149252444 3.0 0.0
8.358208955210136 3.0 0.0
8.656716417895833 3.0 0.0
8.95522388058153 3.0 0.0
9.253731343267225 3.0 0.0
9.552238805952921 3.0 0.0
9.850746268638618 3.0 0.0
10.14925373132431 3.0 0.0
10.44776119401001 3.0 0.0
10.7462686566957 3.0 0.0
11.0447761193814 3.0 0.0
11.34328358206709 3.0 0.0
11.64179104475279 3.0 0.0
11.94029850743848 3.0 0.0
12.23880597012418 3.0 0.0
12.53731343280987 3.0 0.0
12.83582089549557 3.0 0.0
13.13432835818127 3.0 0.0
13.43283582086696 3.0 0.0
13.73134328355265 3.0 0.0
14.02985074623835 3.0 0.0
14.32835820892405 3.0 0.0
14.62686567160974 3.0 0.0
14.92537313429544 3.0 0.0
15.22388059698113 3.0 0.0
15.52238805966683 3.0 0.0
15.82089552235252 3.0 0.0
16.11940298503862 3.0 0.0
16.41791044772535 3.0 0.0
16.71641791041237 3.0 0.0
17.01492537309939 3.0 0.0
17.31343283578641 3.0 0.0
17.61194029847344 3.0 0.0
17.91044776116046 3.0 0.0
18.20895522384748 3.0 0.0
18.5074626865345 3.0 0.0
18.80597014922152 3.0 0.0
19.10447761190854 3.0 0.0
19.40298507459556 3.0 0.0
19.70149253728258 3.0 0.0
19.9999999999696 3.0 0.0
20.29850746265662 3.0 0.0
20.59701492534364 3.0 0.0
20.89552238803066 3.0 0.0
21.19402985071768 3.0 0.0
21.49253731340471 3.0 0.0
21.79104477609173 3.0 0.0
22.08955223877875 3.0 0.0
22.38805970146577 3.0 0.0
22.68656716415279 3.0 0.0
22.98507462683981 3.0 0.0
23.28358208952683 3.0 0.0
23.58208955221385 3.0 0.0
23.88059701490088 3.0 0.0
24.1791044775879 3.0 0.0
24.47761194027491 3.0 0.0
24.77611940296193 3.0 0.0
25.07462686564896 3.0 0.0
25.37313432833598 3.0 0.0
25.671641791023 3.0 0.0
25.97014925371002 3.0 0.0
26.26865671639704 3.0 0.0
26.56716417908406 3.0 0.0
26.86567164177108 3.0 0.0
27.1641791044581 3.0 0.0
27.46268656714512 3.0 0.0
27.76119402983214 3.0 0.0
28.05970149251916 3.0 0.0
28.35820895520619 3.0 0.0
28.65671641789321 3.0 0.0
28.95522388058023 3.0 0.0
29.25373134326725 3.0 0.0
29.55223880595426 3.0 0.0
29.85074626864129 3.0 0.0
30.14925373132831 3.0 0.0
30.44776119401533 3.0 0.0
30.74626865670236 3.0 0.0
31.04477611938937 3.0 0.0
31.34328358207639 3.0 0.0
31.64179104476341 3.0 0.0
31.94029850745043 3.0 0.0
32.23880597013746 3.0 0.0
32.53731343282448 3.0 0.0
32.8358208955115 3.0 0.0
33.13432835819852 3.0 0.0
33.43283582088554 3.0 0.0
33.73134328357256 3.0 0.0
34.02985074625958 3.0 0.0
34.3283582089466 3.0 0.0
34.62686567163362 3.0 0.0
34.92537313432064 3.0 0.0
35.22388059700766 3.0 0.0
35.52238805969468 3.0 0.0
35.8208955223817 3.0 0.0
36.11940298506872 3.0 0.0
36.41791044775574 3.0 0.0
36.71641791044276 3.0 0.0
37.01492537312978 3.0 0.0
37.31343283581681 3.0 0.0
37.61194029850382 3.0 0.0
37.91044776119085 3.0 0.0
38.20895522387787 3.0 0.0
38.5074626865649 3.0 0.0
38.80597014925192 3.0 0.0
39.10447761193894 3.0 0.0
39.40298507462596 3.0 0.0
39.70149253731298 3.0 0.0
40.0 2.700000000001935 0.0
40.0 2.400000000003002 0.0
40.0 2.100000000002161 0.0
40.0 1.800000000002828 0.0
40.0 1.500000000004164 0.0
40.0 1.200000000003365 0.0
40.0 0.9000000000025241 0.0
40.0 0.6000000000016827 0.0
40.0 0.3000000000008414 0.0
39.70000000000115 0.0 0.0
39.40000000000229 0.0 0.0
39.10000000000343 0.0 0.0
38.80000000000458 0.0 0.0
38.50000000000572 0.0 0.0
38.20000000000687 0.0 0.0
37.90000000000801 0.0 0.0
37.60000000000915 0.0 0.0
37.3000000000103 0.0 0.0
37.00000000001144 0.0 0.0
36.70000000001259 0.0 0.0
36.40000000001373 0.0 0.0
36.10000000001487 0.0 0.0
35.80000000001602 0.0 0.0
35.50000000001717 0.0 0.0
35.20000000001831 0.0 0.0
34.90000000001945 0.0 0.0
34.6000000000206 0.0 0.0
34.30000000002174 0.0 0.0
34.00000000002289 0.0 0.0
33.70000000002403 0.0 0.0
33.40000000002517 0.0 0.0
33.10000000002632 0.0 0.0
32.80000000002747 0.0 0.0
32.50000000002861 0.0 0.0
32.20000000002975 0.0 0.0
31.9000000000309 0.0 0.0
31.60000000003204 0.0 0.0
31.30000000003319 0.0 0.0
31.00000000003433 0.0 0.0
30.70000000003548 0.0 0.0
30.40000000003662 0.0 0.0
30.10000000003777 0.0 0.0
29.80000000003891 0.0 0.0
29.50000000004005 0.0 0.0
29.2000000000412 0.0 0.0
28.90000000004234 0.0 0.0
28.60000000004348 0.0 0.0
28.30000000004463 0.0 0.0
28.00000000004577 0.0 0.0
27.70000000004692 0.0 0.0
27.40000000004806 0.0 0.0
27.1000000000492 0.0 0.0
26.80000000005035 0.0 0.0
26.50000000005149 0.0 0.0
26.20000000005263 0.0 0.0
25.90000000005378 0.0 0.0
25.60000000005492 0.0 0.0
25.30000000005606 0.0 0.0
25.00000000005721 0.0 0.0
24.70000000005835 0.0 0.0
24.40000000005949 0.0 0.0
24.10000000006064 0.0 0.0
23.80000000006178 0.0 0.0
23.50000000006293 0.0 0.0
23.20000000006407 0.0 0.0
22.90000000006521 0.0 0.0
22.60000000006636 0.0 0.0
22.3000000000675 0.0 0.0
22.00000000006795 0.0 0.0
21.70000000006683 0.0 0.0
21.40000000006501 0.0 0.0
21.1000000000632 0.0 0.0
20.80000000006138 0.0 0.0
20.50000000005956 0.0 0.0
20.20000000005775 0.0 0.0
19.90000000005593 0.0 0.0
19.60000000005412 0.0 0.0
19.3000000000523 0.0 0.0
19.00000000005049 0.0 0.0
18.70000000004867 0.0 0.0
18.40000000004686 0.0 0.0
18.10000000004504 0.0 0.0
17.80000000004323 0.0 0.0
17.50000000004141 0.0 0.0
17.2000000000396 0.0 0.0
16.90000000003779 0.0 0.0
16.60000000003597 0.0 0.0
16.30000000003416 0.0 0.0
16.00000000003234 0.0 0.0
15.70000000003053 0.0 0.0
15.40000000002871 0.0 0.0
15.1000000000269 0.0 0.0
14.80000000002508 0.0 0.0
14.50000000002327 0.0 0.0
14.20000000002145 0.0 0.0
13.90000000001964 0.0 0.0
13.60000000001783 0.0 0.0
13.30000000001601 0.0 0.0
13.0000000000142 0.0 0.0
12.70000000001238 0.0 0.0
12.40000000001056 0.0 0.0
12.10000000000875 0.0 0.0
11.80000000000694 0.0 0.0
11.50000000000512 0.0 0.0
11.20000000000331 0.0 0.0
10.90000000000149 0.0 0.0
10.59999999999968 0.0 0.0
10.29999999999787 0.0 0.0
9.99999999999605 0.0 0.0
9.699999999994237 0.0 0.0
9.399999999992424 0.0 0.0
9.099999999990604 0.0 0.0
8.799999999988792 0.0 0.0
8.499999999986976 0.0 0.0
8.199999999985256 0.0 0.0
7.899999999985106 0.0 0.0
7.599999999986252 0.0 0.0
7.299999999987392 0.0 0.0
6.999999999988546 0.0 0.0
6.699999999989686 0.0 0.0
6.399999999990833 0.0 0.0
6.099999999991979 0.0 0.0
5.799999999993126 0.0 0.0
5.499999999994273 0.0 0.0
5.199999999995413 0.0 0.0
4.899999999996567 0.0 0.0
4.599999999997706 0.0 0.0
4.299999999998853 0.0 0.0
4.0 0.2499999999994109 0.0
4.0 0.4999999999986918 0.0
4.0 0.7499999999993401 0.0
3.714285714284526 1.0 0.0
3.428571428569844 1.0 0.0
3.142857142857542 1.0 0.0
2.85714285714524 1.0 0.0
2.571428571432937 1.0 0.0
2.285714285720635 1.0 0.0
2.000000000008246 1.0 0.0
1.714285714292858 1.0 0.0
1.428571428577383 1.0 0.0
1.142857142861906 1.0 0.0
0.8571428571464295 1.0 0.0
0.5714285714309533 1.0 0.0
0.2857142857154762 1.0 0.0
5.440895737063815 1.5321810752057226 0.0
38.359631109480205 1.5447862624578594 0.0
36.55156595862513 1.5678345293898692 0.0
34.78710000302187 1.5642234316343742 0.0
32.9971954225337 1.5616773154845147 0.0
31.206213093159832 1.5616241273381726 0.0
29.41743466562333 1.560813469344192 0.0
27.626772764562254 1.5595442904607533 0.0
25.8345099987122 1.5596010883176028 0.0
24.038234267385175 1.5598722611419031 0.0
22.28410800461182 1.5615988969890857 0.0
20.49887470353422 1.5590348043573192 0.0
18.706375623998746 1.5616894963191854 0.0
16.914750360834766 1.563910776410858 0.0
15.128618847375977 1.5556246456016476 0.0
13.33374344126039 1.5511890511266595 0.0
7.030759682398678 1.534442092687481 0.0
11.566049076409328 1.4969212260342677 0.0
8.761848711004971 1.5139156602083867 0.0
10.122611928795317 1.6236584616968261 0.0
4.526369532015368 1.9188661001514808 0.0
3.5185905812745153 2.0252610404151303 0.0
0.8929602934338949 2.0484837616277805 0.0
2.1303862954741786 2.0128365285831764 0.0
37.45664389250272 1.9215745158530688 0.0
35.76980667423149 1.9566969156967804 0.0
33.97560565425424 1.951129826056218 0.0
32.18468257484926 1.9502423738014634 0.0
30.393953542480887 1.9506962134922115 0.0
28.603869422410817 1.9490708688174188 0.0
26.81243432007293 1.9489436858605451 0.0
25.020320832831715 1.9489079511655873 0.0
23.222921081222125 1.9532226644536412 0.0
21.438577064798203 1.9510574224417399 0.0
19.648320628121976 1.9527003755547225 0.0
17.85646983812719 1.9551347438424853 0.0
16.066386904528457 1.9524591667910451 0.0
14.276194644033797 1.949504085905422 0.0
12.469240233774332 1.9331189870611798 0.0
7.903765740008337 1.9170293474259146 0.0
32.11693620250729 1.0153772846462719 0.0
33.9052719667752 1.018314117442152 0.0
30.327339895719167 1.0165516066818012 0.0
35.685997274784626 1.0240920134690144 0.0
37.47826336526687 0.9143900830224962 0.0
28.544382306259507 1.008832531079308 0.0
26.750770900913658 1.008697819364698 0.0
24.956031422002802 1.0087920104531238 0.0
23.15163741793711 1.0082816543559 0.0
21.376334792735403 0.9954454147104485 0.0
19.585082890394872 1.0071215101888775 0.0
17.79121251690518 1.0187009575384915 0.0
16.01281168302144 1.0009471538479193 0.0
14.223190832776599 0.9947506625384457 0.0
12.435116110262122 0.9533072381305729 0.0
7.904118015944833 0.9516540425309552 0.0
6.260075186818547 0.9882083828748837 0.0
6.226199612153765 2.037271304307933 0.0
4.831970914683074 0.828771924662698 0.0
[...]
POINT_DATA 1869
VECTORS vector double
0.0 0.0 0.0
0.0 0.0 0.0
0.0 0.0 0.0
0.0 0.0 0.0
0.0 0.0 0.0
0.0 0.0 0.0
0.734693877556 0.0 0.0
1.22448979592 0.0 0.0
1.4693877551 0.0 0.0
1.4693877551 0.0 0.0
1.22448979592 0.0 0.0
0.73469387755 0.0 0.0
0.0 0.0 0.0
0.0 0.0 0.0
0.0 0.0 0.0
0.0 0.0 0.0
0.0 0.0 0.0
0.0 0.0 0.0
0.0 0.0 0.0
0.0 0.0 0.0
0.0 0.0 0.0
0.0 0.0 0.0
0.0 0.0 0.0
0.0 0.0 0.0
0.0 0.0 0.0
0.0 0.0 0.0
0.0 0.0 0.0
0.0 0.0 0.0
0.0 0.0 0.0
0.0 0.0 0.0
0.0 0.0 0.0
0.0 0.0 0.0
0.0 0.0 0.0
0.0 0.0 0.0
0.0 0.0 0.0
0.0 0.0 0.0
0.0 0.0 0.0
0.0 0.0 0.0
0.0 0.0 0.0
0.0 0.0 0.0
0.0 0.0 0.0
0.0 0.0 0.0
0.0 0.0 0.0
0.0 0.0 0.0
0.0 0.0 0.0
0.0 0.0 0.0
0.0 0.0 0.0
0.0 0.0 0.0
0.0 0.0 0.0
0.0 0.0 0.0
0.0 0.0 0.0
0.0 0.0 0.0
0.0 0.0 0.0
0.0 0.0 0.0
0.0 0.0 0.0
0.0 0.0 0.0
0.0 0.0 0.0
0.0 0.0 0.0
0.0 0.0 0.0
0.0 0.0 0.0
0.0 0.0 0.0
0.0 0.0 0.0
0.0 0.0 0.0
0.0 0.0 0.0
0.0 0.0 0.0
0.0 0.0 0.0
0.0 0.0 0.0
0.0 0.0 0.0
0.0 0.0 0.0
0.0 0.0 0.0
0.0 0.0 0.0
0.0 0.0 0.0
0.0 0.0 0.0
0.0 0.0 0.0
0.0 0.0 0.0
0.0 0.0 0.0
0.0 0.0 0.0
0.0 0.0 0.0
0.0 0.0 0.0
0.0 0.0 0.0
0.0 0.0 0.0
0.0 0.0 0.0
0.0 0.0 0.0
0.0 0.0 0.0
0.0 0.0 0.0
0.0 0.0 0.0
0.0 0.0 0.0
0.0 0.0 0.0
0.0 0.0 0.0
0.0 0.0 0.0
0.0 0.0 0.0
0.0 0.0 0.0
0.0 0.0 0.0
0.0 0.0 0.0
0.0 0.0 0.0
0.0 0.0 0.0
0.0 0.0 0.0
0.0 0.0 0.0
0.0 0.0 0.0
0.0 0.0 0.0
0.0 0.0 0.0
0.0 0.0 0.0
0.0 0.0 0.0
0.0 0.0 0.0
0.0 0.0 0.0
0.0 0.0 0.0
0.0 0.0 0.0
0.0 0.0 0.0
0.0 0.0 0.0
0.0 0.0 0.0
0.0 0.0 0.0
0.0 0.0 0.0
0.0 0.0 0.0
0.0 0.0 0.0
0.0 0.0 0.0
0.0 0.0 0.0
0.0 0.0 0.0
0.0 0.0 0.0
0.0 0.0 0.0
0.0 0.0 0.0
0.0 0.0 0.0
0.0 0.0 0.0
0.0 0.0 0.0
0.0 0.0 0.0
0.0 0.0 0.0
0.0 0.0 0.0
0.0 0.0 0.0
0.0 0.0 0.0
0.0 0.0 0.0
0.0 0.0 0.0
0.0 0.0 0.0
0.0 0.0 0.0
0.0 0.0 0.0
0.0 0.0 0.0
0.0 0.0 0.0
0.0 0.0 0.0
0.0 0.0 0.0
0.0 0.0 0.0
0.0 0.0 0.0
0.0 0.0 0.0
0.0 0.0 0.0
0.0 0.0 0.0
0.0 0.0 0.0
0.0 0.0 0.0
0.0 0.0 0.0
0.496546710325 0.0279071599049 0.0
0.738326696177 0.000557355596783 0.0
0.809780882963 0.00147108328029 0.0
0.819871279195 -0.00100191403382 0.0
0.817497229286 -0.000253407195425 0.0
0.819299170082 0.00123369793657 0.0
0.80945159626 -0.00136711136248 0.0
0.743070601055 -7.49088472773e-05 0.0
0.497608725627 -0.0262697068947 0.0
0.0 0.0 0.0
0.0 0.0 0.0
0.0 0.0 0.0
0.0 0.0 0.0
0.0 0.0 0.0
0.0 0.0 0.0
0.0 0.0 0.0
0.0 0.0 0.0
0.0 0.0 0.0
0.0 0.0 0.0
0.0 0.0 0.0
0.0 0.0 0.0
0.0 0.0 0.0
0.0 0.0 0.0
0.0 0.0 0.0
0.0 0.0 0.0
0.0 0.0 0.0
0.0 0.0 0.0
0.0 0.0 0.0
0.0 0.0 0.0
0.0 0.0 0.0
0.0 0.0 0.0
0.0 0.0 0.0
0.0 0.0 0.0
0.0 0.0 0.0
0.0 0.0 0.0
0.0 0.0 0.0
0.0 0.0 0.0
0.0 0.0 0.0
0.0 0.0 0.0
0.0 0.0 0.0
0.0 0.0 0.0
0.0 0.0 0.0
0.0 0.0 0.0
0.0 0.0 0.0
0.0 0.0 0.0
0.0 0.0 0.0
0.0 0.0 0.0
0.0 0.0 0.0
0.0 0.0 0.0
0.0 0.0 0.0
0.0 0.0 0.0
0.0 0.0 0.0
0.0 0.0 0.0
0.0 0.0 0.0
0.0 0.0 0.0
0.0 0.0 0.0
0.0 0.0 0.0
0.0 0.0 0.0
0.0 0.0 0.0
0.0 0.0 0.0
0.0 0.0 0.0
0.0 0.0 0.0
0.0 0.0 0.0
0.0 0.0 0.0
0.0 0.0 0.0
0.0 0.0 0.0
0.0 0.0 0.0
0.0 0.0 0.0
0.0 0.0 0.0
0.0 0.0 0.0
0.0 0.0 0.0
0.0 0.0 0.0
0.0 0.0 0.0
0.0 0.0 0.0
0.0 0.0 0.0
0.0 0.0 0.0
0.0 0.0 0.0
0.0 0.0 0.0
0.0 0.0 0.0
0.0 0.0 0.0
0.0 0.0 0.0
0.0 0.0 0.0
0.0 0.0 0.0
0.0 0.0 0.0
0.0 0.0 0.0
0.0 0.0 0.0
0.0 0.0 0.0
0.0 0.0 0.0
0.0 0.0 0.0
0.0 0.0 0.0
0.0 0.0 0.0
0.0 0.0 0.0
0.0 0.0 0.0
0.0 0.0 0.0
0.0 0.0 0.0
0.0 0.0 0.0
0.0 0.0 0.0
0.0 0.0 0.0
0.0 0.0 0.0
0.0 0.0 0.0
0.0 0.0 0.0
0.0 0.0 0.0
0.0 0.0 0.0
0.0 0.0 0.0
0.0 0.0 0.0
0.0 0.0 0.0
0.0 0.0 0.0
0.0 0.0 0.0
0.0 0.0 0.0
0.0 0.0 0.0
0.0 0.0 0.0
0.0 0.0 0.0
0.0 0.0 0.0
0.0 0.0 0.0
0.0 0.0 0.0
0.0 0.0 0.0
0.0 0.0 0.0
0.0 0.0 0.0
0.0 0.0 0.0
0.0 0.0 0.0
0.0 0.0 0.0
0.0 0.0 0.0
0.0 0.0 0.0
0.0 0.0 0.0
0.0 0.0 0.0
0.0 0.0 0.0
0.0 0.0 0.0
0.0 0.0 0.0
0.0 0.0 0.0
0.0 0.0 0.0
0.0 0.0 0.0
0.0 0.0 0.0
0.0 0.0 0.0
0.0 0.0 0.0
0.0 0.0 0.0
0.0 0.0 0.0
0.0 0.0 0.0
0.0 0.0 0.0
0.0 0.0 0.0
0.0 0.0 0.0
0.0 0.0 0.0
0.0 0.0 0.0
0.0 0.0 0.0
0.0 0.0 0.0
0.860030526916 -0.166830371357 0.0
0.810849873964 -0.00324012070027 0.0
0.804930910455 0.000843908015978 0.0
0.809556441488 0.000919261330395 0.0
0.809065559278 -0.000135318257933 0.0
0.80899128401 -6.20438106011e-05 0.0
0.807407903667 2.30175383313e-05 0.0
0.807295669824 -0.000363802943094 0.0
0.807298952949 -0.000425029767365 0.0
0.807324923714 -0.000381447249042 0.0
0.806943693706 0.000116283222847 0.0
0.805871622153 -0.000343283590863 0.0
0.806057304889 -0.000983785094231 0.0
0.80684029004 -0.000723885888016 0.0
0.806876712193 -0.000605586010035 0.0
0.807992979566 -0.0023699032426 0.0
0.80977466066 -0.0188226586163 0.0
0.804667348922 -0.00257405525935 0.0
0.805339812786 0.000402735663135 0.0
0.801509589379 0.00121301757631 0.0
1.11978349395 -0.190986954014 0.0
1.31821764663 -0.0750100744379 0.0
1.43198812753 0.00933795201321 0.0
1.34900571786 -0.0150878810641 0.0
0.808051129672 -0.00347942852425 0.0
0.805216514475 0.00552885410702 0.0
0.806085288674 0.00171825486614 0.0
0.805643371799 0.00126308203247 0.0
0.805023577297 0.00160257916999 0.0
0.804299253928 0.00123094211864 0.0
0.804228029571 0.0011072298178 0.0
0.804234025717 0.00108360330475 0.0
0.804102694638 0.00132359341637 0.0
0.803402585276 0.00143664392951 0.0
0.803062069169 0.000999690316805 0.0
0.803674484258 0.000787393227503 0.0
0.804126034909 0.000971656561816 0.0
0.804512843985 0.000519140536654 0.0
0.805463641769 -0.00313233348829 0.0
0.812260203766 -0.00135265645641 0.0
0.805283614092 0.000187459620006 0.0
0.804963838875 0.000943918149836 0.0
0.805416378068 0.001812510144 0.0
0.80322400733 0.000818400007136 0.0
0.802848976501 -0.00125724098754 0.0
0.804934978171 0.000147854270452 0.0
0.805029069078 4.45661678249e-06 0.0
0.805074537861 -1.67824777976e-05 0.0
0.805476355036 0.000383148754969 0.0
0.803335112921 0.00167574180187 0.0
0.803804046962 0.000792405817467 0.0
0.806087122292 -0.000182938209969 0.0
0.806899775765 0.000499646402713 0.0
0.805845230296 -0.000357318117719 0.0
0.804437053588 -0.000693999875879 0.0
0.80169617115 -0.00102675320921 0.0
0.767757598549 -0.0520216080733 0.0
0.8456550619 -0.0398194937885 0.0
0.525703016258 -0.308465600824 0.0
0.800039301087 -0.000372711779708 0.0
0.798491975342 0.00260044808762 0.0
0.805259152897 -0.00193447090924 0.0
0.802483208713 0.00183981111642 0.0
0.799912839398 -0.00641782149611 0.0
0.795481381319 0.005031809644 0.0
0.922779424576 -0.0719239431983 0.0
0.777614017339 -0.00308783338966 0.0
0.784357660517 -0.00978452229742 0.0
0.781819063637 -0.00614297056584 0.0
0.787954072576 -0.00568078316432 0.0
0.788256822055 -0.00758482595167 0.0
0.78825834274 -0.0059694039427 0.0
0.786077092117 -0.00130575266925 0.0
0.786869326093 -0.00254452129697 0.0
0.786758149072 -0.00239657691923 0.0
0.786783374847 -0.00233843483736 0.0
0.786743631414 -0.00201501895172 0.0
0.792570984086 0.00216701249947 0.0
0.792022395835 0.00207177421549 0.0
0.798957889095 0.00401318769175 0.0
0.791783488586 0.00449226565543 0.0
0.784771842423 -0.00685921802775 0.0
0.782943018476 -0.000466397646872 0.0
0.792092592274 -0.00801546699027 0.0
0.794029987448 -0.00480681662043 0.0
0.790383698727 0.00473775137177 0.0
0.789407778727 0.00361312144961 0.0
0.789005891968 0.00357289591657 0.0
0.788083341629 0.00367720068531 0.0
0.796443777608 -0.00489457205187 0.0
0.787828367474 0.00348622072516 0.0
0.787792790266 0.00343795934804 0.0
0.787813783601 0.0033854994227 0.0
0.785507463167 0.00380873639399 0.0
0.785020974069 0.00372095534823 0.0
0.784987256283 0.00348315549097 0.0
0.785400802078 0.00351385012517 0.0
0.786094006147 0.00355250440738 0.0
0.787900442664 0.00286497815874 0.0
0.807832844226 -0.007585588438 0.0
0.769180422776 -0.00218248254972 0.0
0.778388707199 0.000883800309837 0.0
1.32277229256 -0.0302112864419 0.0
0.636094615546 -0.1103174959 0.0
1.2257425258 -0.0348357471158 0.0
0.783021336627 0.000507525588119 0.0
1.19650228931 0.0220725527833 0.0
1.29768745991 -0.182338685392 0.0
0.76241262139 0.00160006150447 0.0
1.26526236728 -0.018356513643 0.0
0.989790245823 -0.420580685289 0.0
1.09837821251 -0.0484348169707 0.0
0.813145437788 -0.000620370643012 0.0
0.755337054565 -0.00866264617428 0.0
0.751693277404 -0.00630280874722 0.0
0.750763905742 -0.00624389769076 0.0
0.750210062389 -0.0062837504314 0.0
0.750162170484 -0.00610579874054 0.0
0.750618398963 -0.00595975732431 0.0
0.751536237245 -0.0059373234503 0.0
0.751958608238 -0.00606732060823 0.0
0.751977869407 -0.00603494682681 0.0
0.752116311018 -0.00593534139291 0.0
0.752757673491 -0.00587452344262 0.0
0.753297470941 -0.0059567219565 0.0
0.753976779118 -0.00553907017366 0.0
0.743770305543 0.00924453965844 0.0
0.753773081441 0.00071991813063 0.0
0.802365461852 -0.00104397719449 0.0
0.80221931731 0.00231662786214 0.0
0.756059584918 -0.0104938938647 0.0
0.758302264244 -0.00707437245388 0.0
0.754792280198 -0.00866513171505 0.0
0.760751873627 -0.0119351731359 0.0
1.15872916458 -0.002505217528 0.0
0.760331133777 -0.011824984489 0.0
0.765470616641 0.001868253681 0.0
0.768235121603 0.00110803594534 0.0
0.768255899687 0.001160268208 0.0
0.768248989852 0.00120592734191 0.0
0.768411640533 -0.00334491002367 0.0
0.768623265469 0.00190400511493 0.0
0.768027821952 -0.00312281186164 0.0
0.767906475844 -0.00296762820063 0.0
1.14703693576 0.014440655217 0.0
0.819749313421 -0.0247509907953 0.0
0.807259087468 0.000274187651311 0.0
0.807479882437 0.00105236804371 0.0
0.807023535596 0.000846992071856 0.0
0.805975743444 0.000131642933732 0.0
0.805069493142 0.00284331194037 0.0
0.805973179818 -7.77282849141e-05 0.0
0.80598816769 -0.000114032334438 0.0
0.806071485736 0.00011938261616 0.0
0.805348985204 0.000646391007792 0.0
0.804881031947 -9.50996680266e-05 0.0
0.805646907229 -0.000672114103221 0.0
0.806157474462 -0.000316965485218 0.0
0.806022728711 -0.000761910606452 0.0
0.807167103824 -0.00264604730978 0.0
0.808087337771 -0.00578154013243 0.0
0.808765847182 -0.00342335983524 0.0
0.806806593102 -0.002168373881 0.0
0.812759310103 -0.0855811458119 0.0
0.69828959783 -0.00357946122807 0.0
0.807611390106 0.000899465611598 0.0
0.807536702592 0.000532095181722 0.0
0.806624434803 0.00127214090901 0.0
0.807151362331 0.00234428367774 0.0
0.806191467592 0.00059311174926 0.0
0.806201909391 0.000484833114435 0.0
0.806222304809 0.000468723541208 0.0
0.806280396375 0.000853875007178 0.0
0.805070711177 0.000956365919023 0.0
0.805015366863 0.000337543956724 0.0
0.727181893316 -0.0125905204506 0.0
0.806028730498 0.000252885730623 0.0
0.806294575426 0.000555227221073 0.0
0.806550781189 -0.00055576575145 0.0
0.805664095598 -0.00210071929112 0.0
0.807737991641 -0.0015816046614 0.0
0.893872008394 -0.0633764085501 0.0
0.960327103343 -0.2817227387 0.0
0.696327237502 0.00146942191048 0.0
0.703725309159 0.00420311420943 0.0
1.22644652766 -0.0330916607392 0.0
0.105464578165 -0.129522851822 0.0
0.691351111104 -1.2571082176e-06 0.0
0.698373724323 -0.00688564324554 0.0
0.704346247385 0.00418121927647 0.0
0.69540134308 0.00439945302773 0.0
1.10178728133 -0.0138438119834 0.0
0.681691613981 0.00181007377811 0.0
0.697652965865 0.00436537963003 0.0
0.682564953755 0.00192377510114 0.0
0.727280719825 -0.00672405780708 0.0
0.731848264154 0.0106391249509 0.0
0.71109166675 0.0024202149586 0.0
0.731276655787 0.00829609347801 0.0
0.73086202451 0.00813505206777 0.0
0.730099274309 0.00826148404507 0.0
0.729787499961 0.0081157260972 0.0
0.729708951582 0.00807318521735 0.0
0.729766574401 0.00805743422417 0.0
0.72708240233 0.00821718648885 0.0
0.726915401759 0.00815050512367 0.0
0.726513630562 0.00797596953132 0.0
0.726603590347 0.00791295322191 0.0
0.727499825193 0.00798342223716 0.0
0.728682474642 0.00785360063546 0.0
0.721538036369 0.0059564549684 0.0
0.735721682566 -0.00168342715285 0.0
0.682628041801 0.00197414102617 0.0
0.716508657354 0.00473503048102 0.0
0.678099585889 0.00938697727489 0.0
0.682622083267 0.00212403917713 0.0
0.674968499027 0.00933938606636 0.0
1.20923223816 -0.0179723818561 0.0
0.685667193872 0.00747138874416 0.0
0.68606180892 -0.00591224855145 0.0
0.667525946313 0.00286824833045 0.0
0.683905309165 0.00629494036563 0.0
0.683684842252 0.00831008850326 0.0
0.685308643338 0.00830216733512 0.0
0.640990546686 -4.41965362448e-06 0.0
1.09962905711 -0.0268897166883 0.0
1.11053226325 0.0386722548735 0.0
0.804606342634 -0.0408281446019 0.0
0.803790958209 0.00131307432826 0.0
0.663849926267 -0.00323311010111 0.0
0.668475685015 0.00600827033069 0.0
1.08176990578 -0.0213055633682 0.0
0.703156636249 -0.000928698122745 0.0
0.827812488459 -0.0252008527093 0.0
0.724604033494 0.000949705346367 0.0
0.811810398806 -0.00192550749943 0.0
0.636627072124 -0.0436368407407 0.0
0.696824024307 0.0023586287619 0.0
0.706660109871 -0.0027512522855 0.0
0.712028604138 0.00392711399123 0.0
0.80974905091 -0.00140541386437 0.0
0.805075328407 -0.0032275491893 0.0
0.803415422831 -0.000354225605364 0.0
0.873766823144 -0.0784236168507 0.0
0.802791836984 0.00274323763784 0.0
0.808997043821 -0.00114638189113 0.0
0.808338416809 -0.00196711895401 0.0
0.807986974784 -0.00181689842855 0.0
0.806923224473 -0.00193036762897 0.0
0.806769771978 -0.0021552038364 0.0
0.806758612339 -0.00219956126266 0.0
0.806672688303 -0.00210068743151 0.0
0.80622903833 -0.00175881549536 0.0
0.805597093106 -0.00212213522979 0.0
0.805968861719 -0.00252558918265 0.0
0.80653963064 -0.0023456555581 0.0
0.806761456568 -0.00243038206962 0.0
0.808448066964 -0.00424879579268 0.0
0.80604035123 -0.00280757896029 0.0
0.806319551889 -0.000195223376977 0.0
0.805444100448 -0.000642304046043 0.0
0.804726864229 -0.00141286896318 0.0
0.804876908266 -0.000726881801849 0.0
0.806871914626 -0.000163566228179 0.0
0.807135804038 -0.000831642116339 0.0
0.80955668447 -0.00084094032058 0.0
0.807104951709 -0.000811188708395 0.0
0.809067211723 -0.00135472631575 0.0
0.807075640529 -0.000749089689077 0.0
0.80928995689 -0.00148026368838 0.0
0.807075538788 -7.99306666507e-05 0.0
0.392556651551 -0.121589749714 0.0
0.808162069376 -0.000728564258642 0.0
0.815219104095 -0.00273283752583 0.0
0.814665536665 0.00271928217091 0.0
0.794253830202 -0.0202330210418 0.0
0.65109462466 -0.00464062572883 0.0
0.643773709672 0.00775328877393 0.0
0.425380433474 -0.368474194291 0.0
0.812883530527 -0.00357219703786 0.0
0.805156023755 0.00239183320869 0.0
0.804526157351 -0.00298145860534 0.0
0.723328381523 -0.00651974888339 0.0
0.71454685087 -0.221718121765 0.0
0.80096004287 0.0027771793702 0.0
0.686515009922 -0.00693679880306 0.0
0.754318791505 -0.128695206734 0.0
1.47393166944 0.00340754304377 0.0
1.08664728005 -0.000494260677125 0.0
0.800796365059 -0.000814524177782 0.0
0.806636892069 -0.00259136784883 0.0
0.80477706587 -0.00129465821407 0.0
0.815960358495 -0.00639511113074 0.0
0.809671086101 -0.00547032327976 0.0
1.33770459253 -0.0201624737531 0.0
1.04666908569 -0.00918570362385 0.0
0.806667705781 -0.00392169551231 0.0
0.809185427006 0.00230181236207 0.0
0.808878830365 0.00207241020506 0.0
0.80969450149 0.00425869188873 0.0
0.807909568824 0.0024409552529 0.0
0.8074848446 0.00204041612488 0.0
0.803641051384 0.00156390945408 0.0
0.807456554261 0.00195812525324 0.0
0.807462923867 0.0019390376841 0.0
0.80696476379 0.00220647924809 0.0
0.806115562826 0.00218789135978 0.0
0.806079416646 0.00176973055742 0.0
0.806783686118 0.00173645505873 0.0
0.807087727713 0.00188772834027 0.0
0.807933327107 0.00112226728239 0.0
0.804083318516 -0.00321333220981 0.0
0.809093164032 0.00169212863173 0.0
0.810250486656 -0.00333205765342 0.0
0.802623511283 -0.00998364689233 0.0
0.80819128884 -0.00342052622005 0.0
0.807046646478 -0.00119305741004 0.0
0.807428614514 -0.00112536223219 0.0
0.806406206764 -0.00175311181148 0.0
0.806058075398 -0.000699640499897 0.0
0.807038919151 0.000681810935667 0.0
0.80672086669 0.00343379499425 0.0
0.809825603274 0.00206200130437 0.0
0.809475333576 0.000845749456922 0.0
0.80750582189 -0.000112440501895 0.0
0.809688350485 0.00120673549168 0.0
0.807367266556 -0.000166616116742 0.0
0.807287428426 0.000231059322143 0.0
0.807343953403 -0.000109005815846 0.0
0.57281903588 0.0267582097554 0.0
0.63133181078 -0.00508870816347 0.0
0.564970394669 0.00659994905671 0.0
0.564346856722 0.00631865638388 0.0
0.563989692109 0.00631357885437 0.0
0.563426506459 0.00633465454474 0.0
0.563319558158 0.0062840985656 0.0
0.563292861534 0.00626093813394 0.0
0.563285286659 0.00622588899155 0.0
0.560101323183 0.00632401988675 0.0
0.559889582888 0.00629803558602 0.0
0.559682149931 0.00620970371412 0.0
0.559907155761 0.00621616909362 0.0
0.560954902657 0.00624806054614 0.0
0.563825709955 0.00572637640345 0.0
1.2418355294 -0.140019562142 0.0
0.573504801319 0.0181726054737 0.0
0.870013483711 -0.345263938839 0.0
0.569196726636 0.0147690635539 0.0
0.569801421058 0.0145417829585 0.0
0.574753788543 0.0188343315354 0.0
0.575249069561 0.0183161525479 0.0
0.575524060418 0.0182146126459 0.0
0.57569921425 0.0180329845919 0.0
0.574847275603 0.0193784193794 0.0
0.450061344076 -0.0198685887294 0.0
0.610695644509 -0.0155480691403 0.0
0.611277985185 -0.0166763999674 0.0
0.607431920246 -0.00424504356661 0.0
0.576901314838 -0.00888294932699 0.0
0.594621196264 -0.0177634999466 0.0
0.820447949194 -0.0277005317863 0.0
0.655844980089 -0.0315253706544 0.0
0.62373894347 -0.00261206640736 0.0
0.550504245364 -0.010524286584 0.0
0.52782120068 0.00467831805631 0.0
1.02026059755 -0.138000596755 0.0
0.628241041225 -0.00451214346889 0.0
1.1218400266 -0.0785338234652 0.0
0.634306757717 -0.00746143130631 0.0
0.636500455073 -0.0079438451692 0.0
0.659152315747 -0.00732099059642 0.0
0.665832832437 -0.0213035015552 0.0
0.661284381814 -0.0235892982355 0.0
0.474974524315 -0.0361369065216 0.0
0.663684892012 0.00385876365697 0.0
0.666914516975 0.00640309900687 0.0
0.66407936086 0.00356420700027 0.0
0.664008781961 0.00573420630289 0.0
0.651791467744 -0.00420356268405 0.0
0.664179565546 0.00571815454799 0.0
0.664258434833 0.00575077236478 0.0
0.662250556416 0.00599934291781 0.0
0.66393443759 -7.32031082921e-05 0.0
0.630828080048 0.00101406330993 0.0
1.33275492362 -0.0347136371388 0.0
1.3866122515 0.00500593194132 0.0
0.679509750672 0.0122888204873 0.0
0.678584450506 0.00659394593089 0.0
0.680358657039 0.000965911621767 0.0
0.678111143284 0.0064162134452 0.0
0.676389062765 0.00615454914953 0.0
0.677484381646 0.00649784198087 0.0
0.675357456604 0.00626095588912 0.0
0.677106117895 0.00639741329417 0.0
0.674551013412 0.00621316127687 0.0
0.677005570774 0.00635589323993 0.0
0.67458390161 0.00630386179066 0.0
0.677046396657 0.00634677495593 0.0
0.675098744418 0.00645805892181 0.0
0.675418626557 0.0065918680277 0.0
0.920000902091 -0.154462654831 0.0
1.01920927336 -0.0134762749188 0.0
0.479577564842 -0.00451782740294 0.0
0.478951290104 0.000286286640591 0.0
1.04519442432 -0.340632640635 0.0
0.674772644147 -0.00023684123833 0.0
1.35979927676 -0.00795272484545 0.0
0.797987778586 -0.00162147536625 0.0
0.803271487531 -0.00302880835838 0.0
0.803302897649 -0.000558795248787 0.0
0.804792477543 -0.000144122887115 0.0
0.804248939403 -0.000849322226112 0.0
0.802766661208 0.000352558976268 0.0
0.803847115769 0.00233986432683 0.0
0.453510005386 -0.0345965952496 0.0
0.805474448566 0.000612267403064 0.0
0.805153088987 0.000560739825131 0.0
0.805121429264 0.000614544233991 0.0
0.805035417404 0.000838644721307 0.0
0.805278191202 0.00322524636459 0.0
0.804580742994 0.00224380838144 0.0
0.80160958392 0.00330159896233 0.0
0.804040413292 0.00333719488939 0.0
0.80281428323 0.00114867881764 0.0
0.804155454493 -0.00208501255655 0.0
0.8039312201 0.000247871215409 0.0
0.810472455098 0.000284421305351 0.0
0.809833028236 -0.000810559533508 0.0
0.803678444141 -0.00319580968502 0.0
0.662252751926 -0.0264137868 0.0
0.809593395312 -0.000786954580926 0.0
0.80837618576 -0.000671075111111 0.0
0.808161155295 -0.000995732465946 0.0
0.808151096978 -0.00105573752274 0.0
0.808135428283 -0.00103029923551 0.0
0.807784113492 -0.000564178086791 0.0
0.460918100521 0.0297487689673 0.0
0.459346516569 0.0297227722248 0.0
0.458331107273 0.0296100452226 0.0
0.458372045086 0.0296651050842 0.0
0.458727344389 0.029753846835 0.0
0.458696786839 0.0297475072768 0.0
0.462954705813 0.0301633074157 0.0
0.462861992216 0.0301761249049 0.0
0.462917958427 0.0301904101907 0.0
0.463010683718 0.0302161294634 0.0
0.463512254276 0.0302267321375 0.0