# vtk DataFile Version 2.0
2D Simulation Python
ASCII
DATASET UNSTRUCTURED_GRID
FIELD FieldData 1
NODES 1 2 int
1869 3447

POINTS 1869 double
0.0 1.0 0.0
0.0 3.0 0.0
40.0 3.0 0.0
40.0 0.0 0.0
4.0 0.0 0.0
4.0 1.0 0.0
0.0 1.285714285716665 0.0
0.0 1.571428571430556 0.0
0.0 1.857142857144446 0.0
0.0 2.142857142858336 0.0
0.0 2.428571428572225 0.0
0.0 2.714285714286111 0.0
0.2985074626863422 3.0 0.0
0.5970149253727002 3.0 0.0
0.8955223880590588 3.0 0.0
1.194029850745382 3.0 0.0
1.492537313431632 3.0 0.0
1.791044776117834 3.0 0.0
2.089552238804087 3.0 0.0
2.388059701490418 3.0 0.0
2.686567164176777 3.0 0.0
2.985074626863136 3.0 0.0
3.283582089549494 3.0 0.0
3.582089552235852 3.0 0.0
3.880597014922211 3.0 0.0
4.179104477608569 3.0 0.0
4.477611940294928 3.0 0.0
4.776119402981237 3.0 0.0
5.074626865667346 3.0 0.0
5.373134328353175 3.0 0.0
5.671641791038871 3.0 0.0
5.970149253724567 3.0 0.0
6.268656716410264 3.0 0.0
6.56716417909596 3.0 0.0
6.865671641781655 3.0 0.0
7.164179104467352 3.0 0.0
7.462686567153049 3.0 0.0
7.761194029838745 3.0 0.0
8.05970149252444 3.0 0.0
8.358208955210136 3.0 0.0
8.656716417895833 3.0 0.0
8.95522388058153 3.0 0.0
9.253731343267225 3.0 0.0
9.552238805952921 3.0 0.0
9.850746268638618 3.0 0.0
10.14925373132431 3.0 0.0
10.44776119401001 3.0 0.0
10.7462686566957 3.0 0.0
11.0447761193814 3.0 0.0
11.34328358206709 3.0 0.0
11.64179104475279 3.0 0.0
11.94029850743848 3.0 0.0
12.23880597012418 3.0 0.0
12.53731343280987 3.0 0.0
12.83582089549557 3.0 0.0
13.13432835818127 3.0 0.0
13.43283582086696 3.0 0.0
13.73134328355265 3.0 0.0
14.02985074623835 3.0 0.0
14.32835820892405 3.0 0.0
14.62686567160974 3.0 0.0
14.92537313429544 3.0 0.0
15.22388059698113 3.0 0.0
15.52238805966683 3.0 0.0
15.82089552235252 3.0 0.0
16.11940298503862 3.0 0.0
16.41791044772535 3.0 0.0
16.71641791041237 3.0 0.0
17.01492537309939 3.0 0.0
17.31343283578641 3.0 0.0
17.61194029847344 3.0 0.0
17.91044776116046 3.0 0.0
18.20895522384748 3.0 0.0
18.5074626865345 3.0 0.0
18.80597014922152 3.0 0.0
19.10447761190854 3.0 0.0
19.40298507459556 3.0 0.0
19.70149253728258 3.0 0.0
19.9999999999696 3.0 0.0
20.29850746265662 3.0 0.0
20.59701492534364 3.0 0.0
20.89552238803066 3.0 0.0
21.19402985071768 3.0 0.0
21.49253731340471 3.0 0.0
21.79104477609173 3.0 0.0
22.08955223877875 3.0 0.0
22.38805970146577 3.0 0.0
22.68656716415279 3.0 0.0
22.98507462683981 3.0 0.0
23.28358208952683 3.0 0.0
23.58208955221385 3.0 0.0
23.88059701490088 3.0 0.0
24.1791044775879 3.0 0.0
24.47761194027491 3.0 0.0
24.77611940296193 3.0 0.0
25.07462686564896 3.0 0.0
25.37313432833598 3.0 0.0
25.671641791023 3.0 0.0
25.97014925371002 3.0 0.0
26.26865671639704 3.0 0.0
26.56716417908406 3.0 0.0
26.86567164177108 3.0 0.0
27.1641791044581 3.0 0.0
27.46268656714512 3.0 0.0
27.76119402983214 3.0 0.0
28.05970149251916 3.0 0.0
28.35820895520619 3.0 0.0
28.65671641789321 3.0 0.0
28.95522388058023 3.0 0.0
29.25373134326725 3.0 0.0
29.55223880595426 3.0 0.0
29.85074626864129 3.0 0.0
30.14925373132831 3.0 0.0
30.44776119401533 3.0 0.0
30.74626865670236 3.0 0.0
31.04477611938937 3.0 0.0
31.34328358207639 3.0 0.0
31.64179104476341 3.0 0.0
31.94029850745043 3.0 0.0
32.23880597013746 3.0 0.0
32.53731343282448 3.0 0.0
32.8358208955115 3.0 0.0
33.13432835819852 3.0 0.0
33.43283582088554 3.0 0.0
33.73134328357256 3.0 0.0
34.02985074625958 3.0 0.0
34.3283582089466 3.0 0.0
34.62686567163362 3.0 0.0
34.92537313432064 3.0 0.0
35.22388059700766 3.0 0.0
35.52238805969468 3.0 0.0
35.8208955223817 3.0 0.0
36.11940298506872 3.0 0.0
36.41791044775574 3.0 0.0
36.71641791044276 3.0 0.0
37.01492537312978 3.0 0.0
37.31343283581681 3.0 0.0
37.61194029850382 3.0 0.0
37.91044776119085 3.0 0.0
38.20895522387787 3.0 0.0
38.5074626865649 3.0 0.0
38.80597014925192 3.0 0.0
39.10447761193894 3.0 0.0
39.40298507462596 3.0 0.0
39.70149253731298 3.0 0.0
40.0 2.700000000001935 0.0
40.0 2.400000000003002 0.0
40.0 2.100000000002161 0.0
40.0 1.800000000002828 0.0
40.0 1.500000000004164 0.0
40.0 1.200000000003365 0.0
40.0 0.9000000000025241 0.0
40.0 0.6000000000016827 0.0
40.0 0.3000000000008414 0.0
39.70000000000115 0.0 0.0
39.40000000000229 0.0 0.0
39.10000000000343 0.0 0.0
38.80000000000458 0.0 0.0
38.50000000000572 0.0 0.0
38.20000000000687 0.0 0.0
37.90000000000801 0.0 0.0
37.60000000000915 0.0 0.0
37.3000000000103 0.0 0.0
37.00000000001144 0.0 0.0
36.70000000001259 0.0 0.0
36.40000000001373 0.0 0.0
36.10000000001487 0.0 0.0
35.80000000001602 0.0 0.0
35.50000000001717 0.0 0.0
35.20000000001831 0.0 0.0
34.90000000001945 0.0 0.0
34.6000000000206 0.0 0.0
34.30000000002174 0.0 0.0
34.00000000002289 0.0 0.0
33.70000000002403 0.0 0.0
33.40000000002517 0.0 0.0
33.10000000002632 0.0 0.0
32.80000000002747 0.0 0.0
32.50000000002861 0.0 0.0
32.20000000002975 0.0 0.0
31.9000000000309 0.0 0.0
31.60000000003204 0.0 0.0
31.30000000003319 0.0 0.0
31.00000000003433 0.0 0.0
30.70000000003548 0.0 0.0
30.40000000003662 0.0 0.0
30.10000000003777 0.0 0.0
29.80000000003891 0.0 0.0
29.50000000004005 0.0 0.0
29.2000000000412 0.0 0.0
28.90000000004234 0.0 0.0
28.60000000004348 0.0 0.0
28.30000000004463 0.0 0.0
28.00000000004577 0.0 0.0
27.70000000004692 0.0 0.0
27.40000000004806 0.0 0.0
27.1000000000492 0.0 0.0
26.80000000005035 0.0 0.0
26.50000000005149 0.0 0.0
26.20000000005263 0.0 0.0
25.90000000005378 0.0 0.0
25.60000000005492 0.0 0.0
25.30000000005606 0.0 0.0
25.00000000005721 0.0 0.0
24.70000000005835 0.0 0.0
24.40000000005949 0.0 0.0
24.10000000006064 0.0 0.0
23.80000000006178 0.0 0.0
23.50000000006293 0.0 0.0
23.20000000006407 0.0 0.0
22.90000000006521 0.0 0.0
22.60000000006636 0.0 0.0
22.3000000000675 0.0 0.0
22.00000000006795 0.0 0.0
21.70000000006683 0.0 0.0
21.40000000006501 0.0 0.0
21.1000000000632 0.0 0.0
20.80000000006138 0.0 0.0
20.50000000005956 0.0 0.0
20.20000000005775 0.0 0.0
19.90000000005593 0.0 0.0
19.60000000005412 0.0 0.0
19.3000000000523 0.0 0.0
19.00000000005049 0.0 0.0
18.70000000004867 0.0 0.0
18.40000000004686 0.0 0.0
18.10000000004504 0.0 0.0
17.80000000004323 0.0 0.0
17.50000000004141 0.0 0.0
17.2000000000396 0.0 0.0
16.90000000003779 0.0 0.0
16.60000000003597 0.0 0.0
16.30000000003416 0.0 0.0
16.00000000003234 0.0 0.0
15.70000000003053 0.0 0.0
15.40000000002871 0.0 0.0
15.1000000000269 0.0 0.0
14.80000000002508 0.0 0.0
14.50000000002327 0.0 0.0
14.20000000002145 0.0 0.0
13.90000000001964 0.0 0.0
13.60000000001783 0.0 0.0
13.30000000001601 0.0 0.0
13.0000000000142 0.0 0.0
12.70000000001238 0.0 0.0
12.40000000001056 0.0 0.0
12.10000000000875 0.0 0.0
11.80000000000694 0.0 0.0
11.50000000000512 0.0 0.0
11.20000000000331 0.0 0.0
10.90000000000149 0.0 0.0
10.59999999999968 0.0 0.0
10.29999999999787 0.0 0.0
9.99999999999605 0.0 0.0
9.699999999994237 0.0 0.0
9.399999999992424 0.0 0.0
9.099999999990604 0.0 0.0
8.799999999988792 0.0 0.0
8.499999999986976 0.0 0.0
8.199999999985256 0.0 0.0
7.899999999985106 0.0 0.0
7.599999999986252 0.0 0.0
7.299999999987392 0.0 0.0
6.999999999988546 0.0 0.0
6.699999999989686 0.0 0.0
6.399999999990833 0.0 0.0
6.099999999991979 0.0 0.0
5.799999999993126 0.0 0.0
5.499999999994273 0.0 0.0
5.199999999995413 0.0 0.0
4.899999999996567 0.0 0.0
4.599999999997706 0.0 0.0
4.299999999998853 0.0 0.0
4.0 0.2499999999994109 0.0
4.0 0.4999999999986918 0.0
4.0 0.7499999999993401 0.0
3.714285714284526 1.0 0.0
3.428571428569844 1.0 0.0
3.142857142857542 1.0 0.0
2.85714285714524 1.0 0.0
2.571428571432937 1.0 0.0
2.285714285720635 1.0 0.0
2.000000000008246 1.0 0.0
1.714285714292858 1.0 0.0
1.428571428577383 1.0 0.0
1.142857142861906 1.0 0.0
0.8571428571464295 1.0 0.0
0.5714285714309533 1.0 0.0
0.2857142857154762 1.0 0.0
5.440895737063815 1.5321810752057226 0.0
38.359631109480205 1.5447862624578594 0.0
36.55156595862513 1.5678345293898692 0.0
34.78710000302187 1.5642234316343742 0.0
32.9971954225337 1.5616773154845147 0.0
31.206213093159832 1.5616241273381726 0.0
29.41743466562333 1.560813469344192 0.0
27.626772764562254 1.5595442904607533 0.0
25.8345099987122 1.5596010883176028 0.0
24.038234267385175 1.5598722611419031 0.0
22.28410800461182 1.5615988969890857 0.0
20.49887470353422 1.5590348043573192 0.0
18.706375623998746 1.5616894963191854 0.0
16.914750360834766 1.563910776410858 0.0
15.128618847375977 1.5556246456016476 0.0
13.33374344126039 1.5511890511266595 0.0
7.030759682398678 1.534442092687481 0.0
11.566049076409328 1.4969212260342677 0.0
8.761848711004971 1.5139156602083867 0.0
10.122611928795317 1.6236584616968261 0.0
4.526369532015368 1.9188661001514808 0.0
3.5185905812745153 2.0252610404151303 0.0
0.8929602934338949 2.0484837616277805 0.0
2.1303862954741786 2.0128365285831764 0.0
37.45664389250272 1.9215745158530688 0.0
35.76980667423149 1.9566969156967804 0.0
33.97560565425424 1.951129826056218 0.0
32.18468257484926 1.9502423738014634 0.0
30.393953542480887 1.9506962134922115 0.0
28.603869422410817 1.9490708688174188 0.0
26.81243432007293 1.9489436858605451 0.0
25.020320832831715 1.9489079511655873 0.0
23.222921081222125 1.9532226644536412 0.0
21.438577064798203 1.9510574224417399 0.0
19.648320628121976 1.9527003755547225 0.0
17.85646983812719 1.9551347438424853 0.0
16.066386904528457 1.9524591667910451 0.0
14.276194644033797 1.949504085905422 0.0
12.469240233774332 1.9331189870611798 0.0
7.903765740008337 1.9170293474259146 0.0
32.11693620250729 1.0153772846462719 0.0
33.9052719667752 1.018314117442152 0.0
30.327339895719167 1.0165516066818012 0.0
35.685997274784626 1.0240920134690144 0.0
37.47826336526687 0.9143900830224962 0.0
28.544382306259507 1.008832531079308 0.0
26.750770900913658 1.008697819364698 0.0
24.956031422002802 1.0087920104531238 0.0
23.15163741793711 1.0082816543559 0.0
21.376334792735403 0.9954454147104485 0.0
19.585082890394872 1.0071215101888775 0.0
17.79121251690518 1.0187009575384915 0.0
16.01281168302144 1.0009471538479193 0.0
14.223190832776599 0.9947506625384457 0.0
12.435116110262122 0.9533072381305729 0.0
7.904118015944833 0.9516540425309552 0.0
6.260075186818547 0.9882083828748837 0.0
6.226199612153765 2.037271304307933 0.0
4.831970914683074 0.828771924662698 0.0
[...]
POINT_DATA 1869
VECTORS vector double
0.0 0.0 0.0
0.0 0.0 0.0
0.0 0.0 0.0
0.0 0.0 0.0
0.0 0.0 0.0
0.0 0.0 0.0
0.734693877556 0.0 0.0
1.22448979592 0.0 0.0
1.4693877551 0.0 0.0
1.4693877551 0.0 0.0
1.22448979592 0.0 0.0
0.73469387755 0.0 0.0
0.0 0.0 0.0
0.0 0.0 0.0
0.0 0.0 0.0
0.0 0.0 0.0
0.0 0.0 0.0
0.0 0.0 0.0
0.0 0.0 0.0
0.0 0.0 0.0
0.0 0.0 0.0
0.0 0.0 0.0
0.0 0.0 0.0
0.0 0.0 0.0
0.0 0.0 0.0
0.0 0.0 0.0
0.0 0.0 0.0
0.0 0.0 0.0
0.0 0.0 0.0
0.0 0.0 0.0
0.0 0.0 0.0
0.0 0.0 0.0
0.0 0.0 0.0
0.0 0.0 0.0
0.0 0.0 0.0
0.0 0.0 0.0
0.0 0.0 0.0
0.0 0.0 0.0
0.0 0.0 0.0
0.0 0.0 0.0
0.0 0.0 0.0
0.0 0.0 0.0
0.0 0.0 0.0
0.0 0.0 0.0
0.0 0.0 0.0
0.0 0.0 0.0
0.0 0.0 0.0
0.0 0.0 0.0
0.0 0.0 0.0
0.0 0.0 0.0
0.0 0.0 0.0
0.0 0.0 0.0
0.0 0.0 0.0
0.0 0.0 0.0
0.0 0.0 0.0
0.0 0.0 0.0
0.0 0.0 0.0
0.0 0.0 0.0
0.0 0.0 0.0
0.0 0.0 0.0
0.0 0.0 0.0
0.0 0.0 0.0
0.0 0.0 0.0
0.0 0.0 0.0
0.0 0.0 0.0
0.0 0.0 0.0
0.0 0.0 0.0
0.0 0.0 0.0
0.0 0.0 0.0
0.0 0.0 0.0
0.0 0.0 0.0
0.0 0.0 0.0
0.0 0.0 0.0
0.0 0.0 0.0
0.0 0.0 0.0
0.0 0.0 0.0
0.0 0.0 0.0
0.0 0.0 0.0
0.0 0.0 0.0
0.0 0.0 0.0
0.0 0.0 0.0
0.0 0.0 0.0
0.0 0.0 0.0
0.0 0.0 0.0
0.0 0.0 0.0
0.0 0.0 0.0
0.0 0.0 0.0
0.0 0.0 0.0
0.0 0.0 0.0
0.0 0.0 0.0
0.0 0.0 0.0
0.0 0.0 0.0
0.0 0.0 0.0
0.0 0.0 0.0
0.0 0.0 0.0
0.0 0.0 0.0
0.0 0.0 0.0
0.0 0.0 0.0
0.0 0.0 0.0
0.0 0.0 0.0
0.0 0.0 0.0
0.0 0.0 0.0
0.0 0.0 0.0
0.0 0.0 0.0
0.0 0.0 0.0
0.0 0.0 0.0
0.0 0.0 0.0
0.0 0.0 0.0
0.0 0.0 0.0
0.0 0.0 0.0
0.0 0.0 0.0
0.0 0.0 0.0
0.0 0.0 0.0
0.0 0.0 0.0
0.0 0.0 0.0
0.0 0.0 0.0
0.0 0.0 0.0
0.0 0.0 0.0
0.0 0.0 0.0
0.0 0.0 0.0
0.0 0.0 0.0
0.0 0.0 0.0
0.0 0.0 0.0
0.0 0.0 0.0
0.0 0.0 0.0
0.0 0.0 0.0
0.0 0.0 0.0
0.0 0.0 0.0
0.0 0.0 0.0
0.0 0.0 0.0
0.0 0.0 0.0
0.0 0.0 0.0
0.0 0.0 0.0
0.0 0.0 0.0
0.0 0.0 0.0
0.0 0.0 0.0
0.0 0.0 0.0
0.0 0.0 0.0
0.0 0.0 0.0
0.0 0.0 0.0
0.0 0.0 0.0
0.0 0.0 0.0
0.0 0.0 0.0
0.0 0.0 0.0
0.0 0.0 0.0
0.340554529296 0.0190046491805 0.0
0.612606727392 0.00651659259087 0.0
0.838284342208 0.00930569581365 0.0
0.986460057655 0.00307053289064 0.0
1.03602020535 6.23443832502e-05 0.0
0.983804475613 -0.00250148607852 0.0
0.842386207125 -0.0104392989794 0.0
0.623391043856 -0.00514149524938 0.0
0.341977484998 -0.0182705368171 0.0
0.0 0.0 0.0
0.0 0.0 0.0
0.0 0.0 0.0
0.0 0.0 0.0
0.0 0.0 0.0
0.0 0.0 0.0
0.0 0.0 0.0
0.0 0.0 0.0
0.0 0.0 0.0
0.0 0.0 0.0
0.0 0.0 0.0
0.0 0.0 0.0
0.0 0.0 0.0
0.0 0.0 0.0
0.0 0.0 0.0
0.0 0.0 0.0
0.0 0.0 0.0
0.0 0.0 0.0
0.0 0.0 0.0
0.0 0.0 0.0
0.0 0.0 0.0
0.0 0.0 0.0
0.0 0.0 0.0
0.0 0.0 0.0
0.0 0.0 0.0
0.0 0.0 0.0
0.0 0.0 0.0
0.0 0.0 0.0
0.0 0.0 0.0
0.0 0.0 0.0
0.0 0.0 0.0
0.0 0.0 0.0
0.0 0.0 0.0
0.0 0.0 0.0
0.0 0.0 0.0
0.0 0.0 0.0
0.0 0.0 0.0
0.0 0.0 0.0
0.0 0.0 0.0
0.0 0.0 0.0
0.0 0.0 0.0
0.0 0.0 0.0
0.0 0.0 0.0
0.0 0.0 0.0
0.0 0.0 0.0
0.0 0.0 0.0
0.0 0.0 0.0
0.0 0.0 0.0
0.0 0.0 0.0
0.0 0.0 0.0
0.0 0.0 0.0
0.0 0.0 0.0
0.0 0.0 0.0
0.0 0.0 0.0
0.0 0.0 0.0
0.0 0.0 0.0
0.0 0.0 0.0
0.0 0.0 0.0
0.0 0.0 0.0
0.0 0.0 0.0
0.0 0.0 0.0
0.0 0.0 0.0
0.0 0.0 0.0
0.0 0.0 0.0
0.0 0.0 0.0
0.0 0.0 0.0
0.0 0.0 0.0
0.0 0.0 0.0
0.0 0.0 0.0
0.0 0.0 0.0
0.0 0.0 0.0
0.0 0.0 0.0
0.0 0.0 0.0
0.0 0.0 0.0
0.0 0.0 0.0
0.0 0.0 0.0
0.0 0.0 0.0
0.0 0.0 0.0
0.0 0.0 0.0
0.0 0.0 0.0
0.0 0.0 0.0
0.0 0.0 0.0
0.0 0.0 0.0
0.0 0.0 0.0
0.0 0.0 0.0
0.0 0.0 0.0
0.0 0.0 0.0
0.0 0.0 0.0
0.0 0.0 0.0
0.0 0.0 0.0
0.0 0.0 0.0
0.0 0.0 0.0
0.0 0.0 0.0
0.0 0.0 0.0
0.0 0.0 0.0
0.0 0.0 0.0
0.0 0.0 0.0
0.0 0.0 0.0
0.0 0.0 0.0
0.0 0.0 0.0
0.0 0.0 0.0
0.0 0.0 0.0
0.0 0.0 0.0
0.0 0.0 0.0
0.0 0.0 0.0
0.0 0.0 0.0
0.0 0.0 0.0
0.0 0.0 0.0
0.0 0.0 0.0
0.0 0.0 0.0
0.0 0.0 0.0
0.0 0.0 0.0
0.0 0.0 0.0
0.0 0.0 0.0
0.0 0.0 0.0
0.0 0.0 0.0
0.0 0.0 0.0
0.0 0.0 0.0
0.0 0.0 0.0
0.0 0.0 0.0
0.0 0.0 0.0
0.0 0.0 0.0
0.0 0.0 0.0
0.0 0.0 0.0
0.0 0.0 0.0
0.0 0.0 0.0
0.0 0.0 0.0
0.0 0.0 0.0
0.0 0.0 0.0
0.0 0.0 0.0
0.0 0.0 0.0
0.0 0.0 0.0
0.0 0.0 0.0
0.0 0.0 0.0
0.0 0.0 0.0
1.12066194737 -0.227432769759 0.0
0.994253376562 -0.00118952469321 0.0
0.988623478885 0.00170706897329 0.0
0.991351189117 0.000656193313328 0.0
0.991267303302 -0.000180089911175 0.0
0.990978547635 0.000142754269475 0.0
0.989718043232 -4.30744816806e-05 0.0
0.989656455213 -0.000419072139272 0.0
0.989647587423 -0.000614996380576 0.0
0.989633666062 -0.000269875439127 0.0
0.989760114758 0.00158975631415 0.0
0.988577102713 0.000950966338941 0.0
0.988653426441 -6.47412902273e-05 0.0
0.989598048627 -0.000143019809371 0.0
0.990564309917 -0.000145789533653 0.0
0.990235169132 -0.00311334364177 0.0
1.01746758069 -0.0644805499127 0.0
0.989680150793 0.00247503079985 0.0
0.992364786245 0.00615473233677 0.0
0.980876279942 0.0100143024696 0.0
1.34225654273 -0.178874874761 0.0
1.46797182567 -0.0817335925076 0.0
1.48748271648 0.0027052326477 0.0
1.47824024318 -0.0112532767888 0.0
0.919739854693 -0.0031386122343 0.0
0.905460295728 0.00590917951051 0.0
0.907174693769 0.00319122174033 0.0
0.907076418438 0.00299830613889 0.0
0.90595312997 0.00330137096593 0.0
0.905844360838 0.00294739343997 0.0
0.9058153431 0.00274911383638 0.0
0.905987935297 0.00269687406142 0.0
0.904112396107 0.00320956342436 0.0
0.903045209008 0.00339012857708 0.0
0.901545775703 0.00268767945378 0.0
0.901418546058 0.00226951098417 0.0
0.903506421233 0.00249167852442 0.0
0.905697749017 0.00118952682303 0.0
0.913423120136 -0.00158402439707 0.0
0.915320236617 -0.00376419618515 0.0
0.896196670472 0.000554487653619 0.0
0.896976212522 0.000693045571876 0.0
0.896942998693 0.00174068087306 0.0
0.897718782606 0.00123504883947 0.0
0.843206025099 -0.00259127782384 0.0
0.89380337469 0.000573585062104 0.0
0.893810798312 0.000364551766336 0.0
0.893698306128 0.000318985549078 0.0
0.893758488617 0.00159233070045 0.0
0.884993958615 0.00271148139634 0.0
0.889962876706 0.00102662067951 0.0
0.89734155856 -0.00092213343028 0.0
0.890995993491 0.000485723152461 0.0
0.886840439593 -0.000383549436152 0.0
0.862056768158 -0.00247341363255 0.0
0.874088377623 -0.0123757574558 0.0
0.809111805476 -0.129289086536 0.0
0.979023620261 -0.0860437152304 0.0
0.381684036092 -0.155541836843 0.0
0.858493504806 0.00214212002289 0.0
0.872751936186 0.0110715135127 0.0
0.836614197441 -0.00767784817962 0.0
0.842762737838 0.00471353169395 0.0
0.848292401545 -0.00191060664086 0.0
0.789595214254 0.0125195222005 0.0
0.992638894024 -0.100948636371 0.0
0.750059577605 -0.0330350216693 0.0
0.741774393022 -0.00873776290596 0.0
0.741718614688 -0.00744857037952 0.0
0.765011475447 -0.00538294358616 0.0
0.756989182547 -0.00750503933072 0.0
0.755583334903 -0.0063250877753 0.0
0.753624432264 -0.00258531368948 0.0
0.755393948255 -0.00405353833583 0.0
0.755145754098 -0.00426821693262 0.0
0.755303408992 -0.00414563989324 0.0
0.755678312092 -0.00391098777456 0.0
0.758935938696 -0.000305317186773 0.0
0.758150425128 -0.00071078443593 0.0
0.796798023032 -0.00328207022533 0.0
0.759896211321 0.000351591898536 0.0
0.766166197309 0.00610713081359 0.0
0.742671129786 -0.00191643635038 0.0
0.746461780089 -0.00656058787073 0.0
0.803333121578 0.00141363612283 0.0
0.739083799288 0.005457693293 0.0
0.739360029585 0.00478798850713 0.0
0.73884725718 0.00486083342785 0.0
0.73784384405 0.00488210989098 0.0
0.79031206424 0.00545116996714 0.0
0.737808475721 0.00471360943587 0.0
0.737871578634 0.00460122527939 0.0
0.738042984893 0.00468107331466 0.0
0.730385291214 0.00516284059255 0.0
0.729572023382 0.0050222808022 0.0
0.728857503422 0.0046180941396 0.0
0.729138208194 0.00455765018848 0.0
0.731302812762 0.00455684073306 0.0
0.736323215115 0.00246618588964 0.0
0.775745257652 -0.0216418732723 0.0
0.70648777684 0.000958948567529 0.0
0.701073023126 0.000502382407493 0.0
1.40643591472 -0.031592199726 0.0
0.420705071566 -0.127393971604 0.0
1.22463180155 -0.0209527212082 0.0
0.737818662661 0.00189025303523 0.0
1.18342623824 0.010213955749 0.0
1.35863505032 -0.146552450285 0.0
0.691605111893 0.0055557618859 0.0
1.32786172631 -0.0190107972323 0.0
1.02622752245 -0.283307528354 0.0
1.08006301576 -0.0571513818375 0.0
1.00935688245 -0.00293935830481 0.0
0.663719922887 -0.0110577833871 0.0
0.654398506034 -0.0079813435338 0.0
0.652244639397 -0.00763914983817 0.0
0.651211103793 -0.00760617019882 0.0
0.651634029864 -0.00736234280062 0.0
0.652858693514 -0.00719619644799 0.0
0.655060183906 -0.00727551165251 0.0
0.656059231246 -0.00752113594069 0.0
0.655885357052 -0.00744459095823 0.0
0.655978916358 -0.00733301029686 0.0
0.656422524042 -0.00721844583102 0.0
0.657220522982 -0.00735034771571 0.0
0.65740440043 -0.00710424621723 0.0
0.640757404668 0.00572724284365 0.0
0.660263195322 0.00157424282434 0.0
0.990693864459 0.00554150706962 0.0
0.988233111416 0.0103484209509 0.0
0.665162446112 -0.0142718997707 0.0
0.668494453001 -0.0128471064414 0.0
0.6671127861 -0.015205730776 0.0
0.678068920511 -0.0168077233455 0.0
1.1528492604 0.019553391809 0.0
0.67476910584 -0.0159270752934 0.0
0.681767517894 0.00132009739643 0.0
0.68801922208 0.00042959879584 0.0
0.688080452847 0.000400485808549 0.0
0.688105674822 0.000535385486458 0.0
0.68535610858 -0.00102058668612 0.0
0.689754660409 0.000971508381141 0.0
0.686357819826 -0.00153969941428 0.0
0.686359992841 -0.00170063881688 0.0
1.13996076054 -0.00696186936756 0.0
0.760301669696 -0.0465459053186 0.0
0.994760836834 -0.00159131333413 0.0
0.994796904472 -0.00121362176554 0.0
0.994237257977 -0.001002509548 0.0
0.993611545178 -0.00173687819632 0.0
0.992900169299 0.000178578723482 0.0
0.993570155651 -0.00201111440138 0.0
0.993549029054 -0.00211690449913 0.0
0.993509352338 -0.00136751848561 0.0
0.991881347012 -0.000743986224684 0.0
0.990937347126 -0.00170678559809 0.0
0.991688257004 -0.00249002911114 0.0
0.993074813953 -0.00236567033476 0.0
0.992932824631 -0.00327205141064 0.0
0.990896140251 -0.00576943356919 0.0
1.00218754455 -0.0212193416364 0.0
0.991775616338 -0.00650675417053 0.0
0.991410344959 0.000491982257103 0.0
1.05234773169 -0.168951964936 0.0
0.538445113855 -0.0295454372657 0.0
0.994758524364 0.00130188243437 0.0
0.994664356396 0.00130221753227 0.0
0.993619757476 0.00179235118847 0.0
0.994348065524 0.00257008216594 0.0
0.993365436221 0.00122994432433 0.0
0.9933470377 0.000993744026294 0.0
0.993344133448 0.00103407875712 0.0
0.99363463021 0.0013228378612 0.0
0.992114641978 0.00106655998242 0.0
0.991752094366 -0.000140718619042 0.0
0.590649473432 -0.0268133554169 0.0
0.992829208647 -0.00058413618225 0.0
0.993893532013 -7.30963364366e-05 0.0
0.993636849844 -0.00211924094169 0.0
0.98975081733 -0.00107315729045 0.0
0.997790118628 -0.00392065610838 0.0
0.842007441618 -0.070852507584 0.0
1.188316808 -0.261719495225 0.0
0.561883027364 7.93760095642e-05 0.0
0.581798137036 0.00503862918287 0.0
1.19134876059 -0.0374329223478 0.0
0.0100316542208 -0.0193686781787 0.0
0.546645087827 -0.00611444805195 0.0
0.574714420335 -0.00334125368539 0.0
0.595278809098 0.00781751601844 0.0
0.561923851582 0.00997859388683 0.0
1.05690127986 -0.0134341585896 0.0
0.537704138728 -0.000319253071338 0.0
0.562546485487 -0.00266583244735 0.0
0.538540593918 -0.000436313608979 0.0
0.611158573954 -0.00587150168436 0.0
0.616259824981 0.00488923282511 0.0
0.584999187361 -0.00313018014093 0.0
0.618071078961 0.0036183156876 0.0
0.617809801781 0.00357296735922 0.0
0.616831729098 0.00366778252426 0.0
0.616741771698 0.00353168757988 0.0
0.61670917686 0.0034512242848 0.0
0.616997183873 0.00345572558949 0.0
0.611713617792 0.00382804463482 0.0
0.611148177047 0.00379860244211 0.0
0.610040254906 0.00354418812734 0.0
0.60981736768 0.00342483634348 0.0
0.611470054668 0.00347346485149 0.0
0.614390844773 0.00264494073556 0.0
0.575300250275 0.00216998148856 0.0
0.626398740761 -0.00343524596542 0.0
0.538741392415 -0.000382077751711 0.0
0.591454882894 0.00262713014152 0.0
0.538095626123 0.00615499763134 0.0
0.538738218486 -0.000277369529048 0.0
0.532712271796 0.00659362164853 0.0
1.18640349294 -0.00904279751741 0.0
0.546887157335 0.00365676904822 0.0
0.549561864092 -0.00794447318676 0.0
0.542700351072 -0.00166638677143 0.0
0.544753071047 0.0027889166244 0.0
0.546758385346 0.00394120158166 0.0
0.552263332951 0.00405412850025 0.0
0.497383949663 -0.00328776999665 0.0
1.07591236246 -0.00525425263364 0.0
1.0899933647 0.0153396370232 0.0
1.01829705978 -0.114533906422 0.0
0.934658154526 0.00446301322577 0.0
0.545314077933 -0.00284080166536 0.0
0.52885180009 0.0018339806723 0.0
1.03985214742 -0.0274953502504 0.0
0.577770575652 0.00285300789201 0.0
0.9626937424 -0.0633295730828 0.0
0.577889237475 -0.00264589958665 0.0
0.994973373056 -0.00571940497433 0.0
0.411901576636 -0.0748957542962 0.0
0.543144771202 0.00350728684427 0.0
0.573017702285 0.00257543494307 0.0
0.573574235407 0.00397480480701 0.0
0.9243539661 0.000379601267597 0.0
0.91419427422 0.00200884511718 0.0
0.932817048326 0.00804032100164 0.0
1.09373027013 -0.136773221229 0.0
0.911354121116 0.00292424799847 0.0
0.913626497753 -0.00175272211216 0.0
0.913650898896 -0.00229893336997 0.0
0.91290263922 -0.00202741248083 0.0
0.912205926158 -0.00225298533048 0.0
0.912184610895 -0.00249428978704 0.0
0.912278478582 -0.00263303746235 0.0
0.911951088883 -0.0022806514003 0.0
0.909613786963 -0.00185192345608 0.0
0.90830173808 -0.00236743530576 0.0
0.908049136021 -0.00300873866509 0.0
0.909228168018 -0.00295885164876 0.0
0.911524371529 -0.00338737886658 0.0
0.916051794404 -0.00647300662803 0.0
0.913932469465 -0.00499288783382 0.0
0.917153543592 -0.00273592327422 0.0
0.92129214061 -0.00293911621812 0.0
0.919009088377 -0.00328441074993 0.0
0.917655611704 -0.00217457368293 0.0
0.921403137292 -0.000670229523886 0.0
0.930615914747 -0.00183814669881 0.0
0.932808543334 -0.0012193929813 0.0
0.930667601378 -0.0020172006172 0.0
0.932347072236 -0.00201984861735 0.0
0.930751705914 -0.00182734564966 0.0
0.932347910765 -0.00178113134648 0.0
0.931605748978 -0.00125356369849 0.0
0.135479812771 -0.0671095035881 0.0
0.909893750703 4.61730961472e-05 0.0
0.91855068208 -0.00810321069955 0.0
0.929669942478 0.00965279332971 0.0
0.888387597309 -0.079332442616 0.0
0.519544528339 -0.0014408130059 0.0
0.507359929564 0.00579270301493 0.0
0.310753159094 -0.159677759552 0.0
0.894039396225 -0.00580571257098 0.0
0.884177210731 0.0108297080669 0.0
0.904444134225 0.00111794165608 0.0
0.593786028911 -0.00145842615909 0.0
0.700066173014 -0.202481755471 0.0
0.884597044072 0.00406379710499 0.0
0.554775774791 -0.0136206977636 0.0
0.818316999333 -0.196356881616 0.0
1.48550888009 0.00794829137515 0.0
1.03701855318 0.000924377235288 0.0
0.902183770409 0.00895997740124 0.0
0.946730186799 -0.00111522309997 0.0
0.930408485563 0.00380189521291 0.0
0.940092069939 -0.024276125829 0.0
0.925951542276 -0.00410423730743 0.0
1.46540542138 -0.0140363831949 0.0
0.990011973127 0.000176852859956 0.0
0.930736997193 0.00275145382405 0.0
0.916735970522 -0.00172866899168 0.0
0.916434844071 -0.0017146013682 0.0
0.916047114477 -0.000238269919559 0.0
0.91515280398 -0.00150140731973 0.0
0.915193874665 -0.00185668592695 0.0
0.945760242561 0.0104746687214 0.0
0.915198185844 -0.00204402118295 0.0
0.91535324785 -0.00196041778475 0.0
0.906448213452 -0.00072470330696 0.0
0.905751025494 -0.000849750621287 0.0
0.904808573582 -0.00160940431176 0.0
0.905002431408 -0.00184235397199 0.0
0.907348947664 -0.00168068191418 0.0
0.909838234657 -0.00375937555357 0.0
0.902709923933 -0.00239609099168 0.0
0.884816837534 0.00528986712474 0.0
0.952177386089 -0.00560943892949 0.0
0.952349912839 -0.0429872821482 0.0
0.946030927002 -0.00620457614282 0.0
0.95028626499 -0.00355130946079 0.0
0.954325087532 -0.00352100133176 0.0
0.953042945601 -0.00329564977144 0.0
0.9518976571 -0.00217860084179 0.0
0.952054146184 -0.00103718971764 0.0
0.955598601569 -0.000405629434225 0.0
0.955987158563 -0.00126964182014 0.0
0.95549589502 -0.00197126235803 0.0
0.953538453889 -0.0025280635026 0.0
0.955710351032 -0.00136948202868 0.0
0.953365484989 -0.00298737409632 0.0
0.953648541761 -0.0024801230991 0.0
0.953469612629 -0.00282927921301 0.0
0.424967951607 0.0228964998907 0.0
0.483988711379 -0.00293096624283 0.0
0.413529573609 0.00741584715851 0.0
0.413369958412 0.00724199065275 0.0
0.412959819622 0.00725434062292 0.0
0.412408923148 0.00725584793728 0.0
0.412307017477 0.00720625847681 0.0
0.412396728045 0.00717326187969 0.0
0.412387845114 0.00716633162141 0.0
0.4089023265 0.00735930882604 0.0
0.408166651035 0.00729350689217 0.0
0.407735753485 0.00718113658665 0.0
0.408039319011 0.00719947865283 0.0
0.409231907521 0.00719435392987 0.0
0.414834316069 0.00629361950115 0.0
1.41448927693 -0.129036013751 0.0
0.425487977607 0.0152140901829 0.0
0.956459531978 -0.264871677218 0.0
0.420988211885 0.0146428961177 0.0
0.42191325503 0.0145987016236 0.0
0.429450564084 0.0165640283944 0.0
0.429734771787 0.0160858356845 0.0
0.429944899229 0.0159767899778 0.0
0.430116521846 0.0159414555483 0.0
0.430175931625 0.0171001491871 0.0
0.296670117826 -0.0121503810037 0.0
0.453026655283 -0.00987829684869 0.0
0.454527112545 -0.0107978107661 0.0
0.463802811547 -0.00426397156207 0.0
0.424718475337 -0.00800961894546 0.0
0.437669671244 -0.0113342311179 0.0
0.731389236667 -0.0271774504514 0.0
0.547428498561 -0.0399983990688 0.0
0.468644653937 -0.0090964010198 0.0
0.403427688276 -0.00797101804579 0.0
0.388337294932 0.00576205810332 0.0
1.22246700893 -0.152244175733 0.0
0.47059609883 -0.0289134402421 0.0
1.03900998997 -0.0677892269509 0.0
0.48819580121 -0.0080103641217 0.0
0.491316238424 -0.00840377545595 0.0
0.518651393647 -0.0100514157301 0.0
0.529035665309 -0.0220188273686 0.0
0.52075608965 -0.0224525884647 0.0
0.330829797752 -0.0231032312857 0.0
0.52402029967 0.00603532205204 0.0
0.527541991223 0.00731364450357 0.0
0.524878963447 0.00555331001143 0.0
0.522861811372 0.00726872706957 0.0
0.507648339206 -0.00375145700116 0.0
0.523033299756 0.00727697426964 0.0
0.522975272871 0.00730942063277 0.0
0.520678873783 0.00770614169099 0.0
0.525592821737 0.00429025174617 0.0
0.47846723847 0.00814823402322 0.0
1.47179838908 -0.0370059271706 0.0
1.48500357031 -0.000455893588608 0.0
0.539557896244 0.0101309975371 0.0
0.543407331864 0.00663436289122 0.0
0.550381417159 0.00285961276024 0.0
0.54318365359 0.00656617490623 0.0
0.540616541769 0.00582929343401 0.0
0.54237032181 0.00663952300661 0.0
0.538540802978 0.00631321787864 0.0
0.542135100982 0.00654351396902 0.0
0.537337668406 0.006235410991 0.0
0.542063638263 0.00647838739947 0.0
0.537636868812 0.00638507558457 0.0
0.542315021344 0.00646293152385 0.0
0.538787734502 0.00661507927886 0.0
0.539760114591 0.00667902113187 0.0
1.19216709621 -0.201828542443 0.0
0.931915271601 -0.0105527316987 0.0
0.331857161952 -0.00424854067433 0.0
0.347943354778 0.00511729924612 0.0
0.906219994093 -0.21023093713 0.0
0.511991982437 0.00522166954634 0.0
1.47886051821 -0.00326843214693 0.0
0.841091427764 -0.00957126678933 0.0
0.833887235507 -0.0121260581786 0.0
0.842607512682 -0.00911156973437 0.0
0.850095904703 -0.00921356038631 0.0
0.856107484602 -0.00810697595142 0.0
0.852750171589 -0.00761824291421 0.0
0.846192261227 -0.00707882824642 0.0
0.183721897071 -0.0431040253737 0.0
0.847509640426 -0.00855160780608 0.0
0.847012482437 -0.00892306075524 0.0
0.847197777933 -0.00884692546726 0.0
0.847299967435 -0.00866729515887 0.0
0.850622234981 -0.00659378622834 0.0
0.849526656614 -0.00749717654693 0.0
0.856690552942 -0.00876886108052 0.0
0.85097031127 -0.00707069032394 0.0
0.990251960654 0.0130315183126 0.0
0.981356038404 0.000720211720486 0.0
0.955838344906 0.00446003017901 0.0
0.954018846473 0.00236004532537 0.0
0.954115404527 0.00148468566761 0.0
0.827045894005 -0.0155789805874 0.0
0.570246689108 -0.0276009424517 0.0
0.953623643713 0.00170772355959 0.0
0.952509611991 0.00164474566897 0.0
0.952525520514 0.00132029435038 0.0
0.95256433003 0.00114253001232 0.0
0.952560525298 0.00140790947157 0.0
0.947477077146 0.00214881144806 0.0
0.322088207988 0.0173327987514 0.0
0.319363666619 0.0176048640349 0.0
0.318458359555 0.0175233763756 0.0
0.318464380783 0.0175715624325 0.0
0.319013572801 0.0176788618073 0.0
0.319463010028 0.0177032202777 0.0
0.32318148772 0.0180068171379 0.0
0.322987680638 0.0179953050351 0.0
0.322976471091 0.0180172177505 0.0
0.323081312735 0.0180459765858 0.0
0.32361634458 0.0180673911333 0.0
0.323849564711 0.0180717835599 0.0
0.32385359231 0.0181498546351 0.0