# vtk DataFile Version 1.0
2D Simulation C++
ASCII
DATASET UNSTRUCTURED_GRID
FIELD FieldData 5
TIME 1 3 double
0.0025 1.0 99.94749999994535
ITERATION 1 1 int
39980
NODES 1 3 int
38203 9794 18616
PARAMETERS 1 5 float
54.5 100 1.0 10 1.0
PRPOPERTIES 1 8 float
1.0 1.0 1.0 1.0 1.0 1.0 1.0 1.0

POINTS 9794 double
0.0 1.0 0.0
1.725 1.0 0.0
1.975 1.0 0.0
2.425 1.0 0.0
2.675 1.0 0.0
3.125 1.0 0.0
3.375 1.0 0.0
3.825 1.0 0.0
4.075 1.0 0.0
4.524999999999999 1.0 0.0
4.774999999999999 1.0 0.0
5.225 1.0 0.0
5.475 1.0 0.0
5.925 1.0 0.0
6.175 1.0 0.0
6.624999999999999 1.0 0.0
6.874999999999999 1.0 0.0
7.325 1.0 0.0
7.575 1.0 0.0
8.025 1.0 0.0
8.275 1.0 0.0
10.0 1.0 0.0
10.0 0.0 0.0
0.0 0.0 0.0
0.01391129032255383 1.0 0.0
0.02782258064510771 1.0 0.0
0.04173387096766158 1.0 0.0
0.05564516129021528 1.0 0.0
0.06955645161276752 1.0 0.0
0.08346774193531808 1.0 0.0
0.09737903225786637 1.0 0.0
0.111290322580416 1.0 0.0
0.1252016129029707 1.0 0.0
0.1391129032255273 1.0 0.0
0.153024193548084 1.0 0.0
0.1669354838706407 1.0 0.0
0.1808467741931973 1.0 0.0
0.1947580645157565 1.0 0.0
0.2086693548383161 1.0 0.0
0.2225806451608671 1.0 0.0
0.2364919354834097 1.0 0.0
0.2504032258059464 1.0 0.0
0.2643145161284873 1.0 0.0
0.2782258064510398 1.0 0.0
0.2921370967735891 1.0 0.0
0.3060483870961269 1.0 0.0
0.3199596774186612 1.0 0.0
0.3338709677412038 1.0 0.0
0.3477822580637493 1.0 0.0
0.3616935483862856 1.0 0.0
0.3756048387088199 1.0 0.0
0.3895161290313543 1.0 0.0
0.4034274193538986 1.0 0.0
0.4173387096764442 1.0 0.0
0.4312499999989788 1.0 0.0
0.4451612903215134 1.0 0.0
0.459072580644059 1.0 0.0
0.4729838709666033 1.0 0.0
0.4868951612891377 1.0 0.0
0.500806451611672 1.0 0.0
0.5147177419342064 1.0 0.0
0.5286290322567406 1.0 0.0
0.5425403225792805 1.0 0.0
0.5564516129018373 1.0 0.0
0.570362903224387 1.0 0.0
0.5842741935469213 1.0 0.0
0.5981854838694557 1.0 0.0
0.6120967741919991 1.0 0.0
0.6260080645145558 1.0 0.0
0.639919354837102 1.0 0.0
0.6538306451596364 1.0 0.0
0.6677419354821708 1.0 0.0
0.6816532258047051 1.0 0.0
0.6955645161272394 1.0 0.0
0.7094758064497737 1.0 0.0
0.723387096772308 1.0 0.0
0.7372983870948423 1.0 0.0
0.7512096774173767 1.0 0.0
0.765120967739911 1.0 0.0
0.7790322580624454 1.0 0.0
0.7929435483849978 1.0 0.0
0.8068548387075546 1.0 0.0
0.8207661290300916 1.0 0.0
0.8346774193526261 1.0 0.0
0.8485887096751603 1.0 0.0
0.8624999999977163 1.0 0.0
0.8764112903203184 1.0 0.0
0.8903225806429423 1.0 0.0
0.9042338709655663 1.0 0.0
0.9181451612881872 1.0 0.0
0.9320564516107885 1.0 0.0
0.9459677419333942 1.0 0.0
0.959879032256018 1.0 0.0
0.9737903225786417 1.0 0.0
0.9877016129012655 1.0 0.0
1.001612903223896 1.0 0.0
1.015524193546535 1.0 0.0
1.029435483869142 1.0 0.0
1.043346774191721 1.0 0.0
1.057258064514319 1.0 0.0
1.071169354836964 1.0 0.0
1.08508064515961 1.0 0.0
1.09899193548221 1.0 0.0
1.112903225804789 1.0 0.0
1.126814516127395 1.0 0.0
1.140725806450046 1.0 0.0
1.154637096772686 1.0 0.0
1.168548387095279 1.0 0.0
1.182459677417858 1.0 0.0
1.19637096774047 1.0 0.0
1.210282258063129 1.0 0.0
1.224193548385761 1.0 0.0
1.238104838708347 1.0 0.0
1.252016129030926 1.0 0.0
1.265927419353546 1.0 0.0
1.279838709676211 1.0 0.0
1.293749999998837 1.0 0.0
1.307661290321416 1.0 0.0
1.321572580643997 1.0 0.0
1.335483870966625 1.0 0.0
1.349395161289288 1.0 0.0
1.363306451611905 1.0 0.0
1.377217741934484 1.0 0.0
1.391129032257073 1.0 0.0
1.405040322579708 1.0 0.0
1.418951612902376 1.0 0.0
1.432862903225031 1.0 0.0
1.446774193547639 1.0 0.0
1.460685483870235 1.0 0.0
1.474596774192877 1.0 0.0
1.488508064515546 1.0 0.0
1.502419354838193 1.0 0.0
1.516330645160794 1.0 0.0
1.530241935483373 1.0 0.0
1.544153225805978 1.0 0.0
1.558064516128628 1.0 0.0
1.571975806451268 1.0 0.0
1.585887096773863 1.0 0.0
1.599798387096442 1.0 0.0
1.613709677419053 1.0 0.0
1.62762096774171 1.0 0.0
1.641532258064344 1.0 0.0
1.655443548386931 1.0 0.0
1.66935483870951 1.0 0.0
1.683266129032129 1.0 0.0
1.697177419354793 1.0 0.0
1.711088709677419 1.0 0.0
1.725732755362433 0.98648512263514 0.0
1.727922430552455 0.9731286948999525 0.0
1.731543353645665 0.9600873086038519 0.0
1.736553072629303 0.9475138621143838 0.0
1.742892853095882 0.9355557676586974 0.0
1.750488366974822 0.9243532228534331 0.0
1.759250563750078 0.9140375673894611 0.0
1.769076714753497 0.9047297428107115 0.0
1.779851617165997 0.896538875002375 0.0
1.791448945293955 0.8895609942420264 0.0
1.803732731051556 0.8838779098360163 0.0
1.81655895828649 0.8795562507677743 0.0
1.82977725103242 0.8766466845836958 0.0
1.843232637053748 0.8751833232346187 0.0
1.856767364184932 0.8751833233017778 0.0
1.870222750163418 0.8766466847797435 0.0
1.883441042867221 0.8795562510881006 0.0
1.896267269921489 0.8838779102237129 0.0
1.908551055569513 0.8895609946998082 0.0
1.920148383559964 0.8965388754945889 0.0
1.930923285873538 0.9047297433433202 0.0
1.940749436717013 0.9140375678825636 0.0
1.949511633398866 0.9243532233450111 0.0
1.957107147170295 0.9355557681010888 0.0
1.963446927576702 0.9475138625596569 0.0
1.968456646473019 0.960087308956096 0.0
1.972077569494175 0.9731286951117961 0.0
1.974267244646171 0.9864851227142606 0.0
2.425732755361873 0.9864851226402883 0.0
2.427922430559173 0.9731286948694332 0.0
2.431543353659265 0.9600873085634886 0.0
2.436553072631993 0.94751386210857 0.0
2.442892853139262 0.9355557675865998 0.0
2.450488366989544 0.9243532228340666 0.0
2.459250563746921 0.9140375673927943 0.0
2.469076714699406 0.9047297428566569 0.0
2.479851617172571 0.896538874997918 0.0
2.4914489451901 0.889560994297087 0.0
2.503732730861895 0.8838779099115839 0.0
2.51655895806569 0.8795562508290791 0.0
2.529777250828765 0.8766466846170832 0.0
2.543232636977021 0.8751833232387787 0.0
2.556767364051104 0.875183323294522 0.0
2.570222750093782 0.8766466847683272 0.0
2.583441042632353 0.8795562510228899 0.0
2.596267269725849 0.883877910145763 0.0
2.608551055323197 0.88956099456922 0.0
2.620148383363268 0.8965388753612257 0.0
2.630923285766916 0.9047297432527547 0.0
2.640749436660204 0.9140375678225919 0.0
2.649511633354254 0.9243532232863265 0.0
2.657107147140439 0.935555768051467 0.0
2.663446927569615 0.9475138625443398 0.0
2.668456646457485 0.960087308909993 0.0
2.672077569490642 0.9731286950957455 0.0
2.674267244646557 0.9864851227178102 0.0
3.125732755361874 0.9864851226402883 0.0
3.127922430559173 0.9731286948694332 0.0
3.131543353659266 0.9600873085634886 0.0
3.136553072631993 0.94751386210857 0.0
3.142892853139262 0.9355557675865998 0.0
3.150488366989544 0.9243532228340666 0.0
3.159250563746921 0.9140375673927943 0.0
3.169076714699406 0.9047297428566569 0.0
3.179851617172571 0.896538874997918 0.0
3.1914489451901 0.889560994297087 0.0
3.203732730861895 0.8838779099115839 0.0
3.21655895806569 0.8795562508290791 0.0
3.229777250828766 0.8766466846170832 0.0
3.243232636977021 0.8751833232387787 0.0
3.256767364051104 0.875183323294522 0.0
3.270222750093782 0.8766466847683272 0.0
3.283441042632353 0.8795562510228899 0.0
3.296267269725849 0.883877910145763 0.0
3.308551055323198 0.88956099456922 0.0
3.320148383363268 0.8965388753612257 0.0
3.330923285766916 0.9047297432527547 0.0
3.340749436660205 0.9140375678225919 0.0
3.349511633354255 0.9243532232863265 0.0
3.357107147140439 0.935555768051467 0.0
3.363446927569615 0.9475138625443398 0.0
3.368456646457485 0.960087308909993 0.0
3.372077569490642 0.9731286950957455 0.0
3.374267244646557 0.9864851227178102 0.0
3.825732755363973 0.9864851226209872 0.0
3.82792243056752 0.9731286948315113 0.0
3.831543353677863 0.9600873085082928 0.0
3.836553072664602 0.9475138620380881 0.0
3.842892853189309 0.9355557675034208 0.0
3.850488367060041 0.9243532227413302 0.0
3.859250563840383 0.9140375672941284 0.0
3.869076714817785 0.9047297427561054 0.0
3.879851617317196 0.8965388748998594 0.0
3.891448945361633 0.889560994206146 0.0
3.903732731060292 0.8838779098325358 0.0
3.916558958290177 0.8795562507667506 0.0
3.929777251077835 0.8766466845762505 0.0
3.943232637248431 0.8751833232240632 0.0
3.9567673643419 0.8751833233102885 0.0
3.970222750400328 0.8766466848185829 0.0
3.983441042950377 0.8795562511111885 0.0
3.996267270050497 0.8838779102751144 0.0
4.00855105563878 0.8895609947365308 0.0
4.020148383647724 0.8965388755540916 0.0
4.030923285999166 0.9047297434500299 0.0
4.040749436838118 0.914037568010413 0.0
4.049511633431294 0.92435322338767 0.0
4.057107147220169 0.9355557681839783 0.0
4.063446927574279 0.9475138625544186 0.0
4.068456646456443 0.9600873089068993 0.0
4.072077569475429 0.9731286950266281 0.0
4.074267244641414 0.9864851226705159 0.0
4.52573275536769 0.986485122586803 0.0
4.527922430568802 0.9731286948256844 0.0
4.531543353648348 0.960087308595889 0.0
4.536553072646869 0.9475138620764161 0.0
4.542892853107371 0.9355557676396022 0.0
4.550488366977604 0.9243532228497733 0.0
4.559250563676403 0.914037567467239 0.0
4.569076714646872 0.9047297429012796 0.0
4.579851617170516 0.8965388749993107 0.0
4.591448945346914 0.8895609942139491 0.0
4.603732731096001 0.8838779098183076 0.0
4.616558958033848 0.8795562508379197 0.0
4.629777250845891 0.8766466846142756 0.0
4.643232637033663 0.8751833232357076 0.0
4.656767364219004 0.8751833233036252 0.0
4.670222750374415 0.8766466848143347 0.0
4.68344104314339 0.8795562511647788 0.0
4.696267270035646 0.8838779102691974 0.0
4.708551055630383 0.8895609947320798 0.0
4.720148383640645 0.8965388755492922 0.0
4.730923285993372 0.9047297434451086 0.0
4.740749436833544 0.9140375680055839 0.0
4.749511633427844 0.9243532233831312 0.0
4.757107147217718 0.9355557681799073 0.0
4.763446927572682 0.947513862550969 0.0
4.768456646455532 0.9600873089041979 0.0
4.772077569475019 0.9731286950247722 0.0
4.774267244641311 0.9864851226695713 0.0
5.225732755369144 0.9864851225734389 0.0
5.227922430577733 0.9731286947851135 0.0
5.231543353665905 0.9600873085437822 0.0
5.236553072675601 0.9475138620143125 0.0
5.242892853138263 0.9355557675882608 0.0
5.250488366968302 0.9243532228620106 0.0
5.259250563693977 0.9140375674486868 0.0
5.269076714665782 0.9047297428852172 0.0
[...]
POINT_DATA 9794
SCALARS psi double
LOOKUP_TABLE default
0.9999998353500473
0.9999998353500473
0.9999998353500473
0.9999998353500473
0.9999998353500473
0.9999998353500473
0.9999998353500473
0.9999998353500473
0.9999998353500473
0.9999998353500473
0.9999998353500473
0.9999998353500473
0.9999998353500473
0.9999998353500473
0.9999998353500473
0.9999998353500473
0.9999998353500473
0.9999998353500473
0.9999998353500473
0.9999998353500473
0.9999998353500473
0.9999998353500473
0.0
0.0
0.9999998353500473
0.9999998353500473
0.9999998353500473
0.9999998353500473
0.9999998353500473
0.9999998353500473
0.9999998353500473
0.9999998353500473
0.9999998353500473
0.9999998353500473
0.9999998353500473
0.9999998353500473
0.9999998353500473
0.9999998353500473
0.9999998353500473
0.9999998353500473
0.9999998353500473
0.9999998353500473
0.9999998353500473
0.9999998353500473
0.9999998353500473
0.9999998353500473
0.9999998353500473
0.9999998353500473
0.9999998353500473
0.9999998353500473
0.9999998353500473
0.9999998353500473
0.9999998353500473
0.9999998353500473
0.9999998353500473
0.9999998353500473
0.9999998353500473
0.9999998353500473
0.9999998353500473
0.9999998353500473
0.9999998353500473
0.9999998353500473
0.9999998353500473
0.9999998353500473
0.9999998353500473
0.9999998353500473
0.9999998353500473
0.9999998353500473
0.9999998353500473
0.9999998353500473
0.9999998353500473
0.9999998353500473
0.9999998353500473
0.9999998353500473
0.9999998353500473
0.9999998353500473
0.9999998353500473
0.9999998353500473
0.9999998353500473
0.9999998353500473
0.9999998353500473
0.9999998353500473
0.9999998353500473
0.9999998353500473
0.9999998353500473
0.9999998353500473
0.9999998353500473
0.9999998353500473
0.9999998353500473
0.9999998353500473
0.9999998353500473
0.9999998353500473
0.9999998353500473
0.9999998353500473
0.9999998353500473
0.9999998353500473
0.9999998353500473
0.9999998353500473
0.9999998353500473
0.9999998353500473
0.9999998353500473
0.9999998353500473
0.9999998353500473
0.9999998353500473
0.9999998353500473
0.9999998353500473
0.9999998353500473
0.9999998353500473
0.9999998353500473
0.9999998353500473
0.9999998353500473
0.9999998353500473
0.9999998353500473
0.9999998353500473
0.9999998353500473
0.9999998353500473
0.9999998353500473
0.9999998353500473
0.9999998353500473
0.9999998353500473
0.9999998353500473
0.9999998353500473
0.9999998353500473
0.9999998353500473
0.9999998353500473
0.9999998353500473
0.9999998353500473
0.9999998353500473
0.9999998353500473
0.9999998353500473
0.9999998353500473
0.9999998353500473
0.9999998353500473
0.9999998353500473
0.9999998353500473
0.9999998353500473
0.9999998353500473
0.9999998353500473
0.9999998353500473
0.9999998353500473
0.9999998353500473
0.9999998353500473
0.9999998353500473
0.9999998353500473
0.9999998353500473
0.9999998353500473
0.9999998353500473
0.9999998353500473
0.9999998353500473
0.9999998353500473
0.9999998353500473
0.9999998353500473
0.9999998353500473
0.9999998353500473
0.9999998353500473
0.9999998353500473
0.9999998353500473
0.9999998353500473
0.9999998353500473
0.9999998353500473
0.9999998353500473
0.9999998353500473
0.9999998353500473
0.9999998353500473
0.9999998353500473
0.9999998353500473
0.9999998353500473
0.9999998353500473
0.9999998353500473
0.9999998353500473
0.9999998353500473
0.9999998353500473
0.9999998353500473
0.9999998353500473
0.9999998353500473
0.9999998353500473
0.9999998353500473
0.9999998353500473
0.9999998353500473
0.9999998353500473
0.9999998353500473
0.9999998353500473
0.9999998353500473
0.9999998353500473
0.9999998353500473
0.9999998353500473
0.9999998353500473
0.9999998353500473
0.9999998353500473
0.9999998353500473
0.9999998353500473
0.9999998353500473
0.9999998353500473
0.9999998353500473
0.9999998353500473
0.9999998353500473
0.9999998353500473
0.9999998353500473
0.9999998353500473
0.9999998353500473
0.9999998353500473
0.9999998353500473
0.9999998353500473
0.9999998353500473
0.9999998353500473
0.9999998353500473
0.9999998353500473
0.9999998353500473
0.9999998353500473
0.9999998353500473
0.9999998353500473
0.9999998353500473
0.9999998353500473
0.9999998353500473
0.9999998353500473
0.9999998353500473
0.9999998353500473
0.9999998353500473
0.9999998353500473
0.9999998353500473
0.9999998353500473
0.9999998353500473
0.9999998353500473
0.9999998353500473
0.9999998353500473
0.9999998353500473
0.9999998353500473
0.9999998353500473
0.9999998353500473
0.9999998353500473
0.9999998353500473
0.9999998353500473
0.9999998353500473
0.9999998353500473
0.9999998353500473
0.9999998353500473
0.9999998353500473
0.9999998353500473
0.9999998353500473
0.9999998353500473
0.9999998353500473
0.9999998353500473
0.9999998353500473
0.9999998353500473
0.9999998353500473
0.9999998353500473
0.9999998353500473
0.9999998353500473
0.9999998353500473
0.9999998353500473
0.9999998353500473
0.9999998353500473
0.9999998353500473
0.9999998353500473
0.9999998353500473
0.9999998353500473
0.9999998353500473
0.9999998353500473
0.9999998353500473
0.9999998353500473
0.9999998353500473
0.9999998353500473
0.9999998353500473
0.9999998353500473
0.9999998353500473
0.9999998353500473
0.9999998353500473
0.9999998353500473
0.9999998353500473
0.9999998353500473
0.9999998353500473
0.9999998353500473
0.9999998353500473
0.9999998353500473
0.9999998353500473
0.9999998353500473
0.9999998353500473
0.9999998353500473
0.9999998353500473
0.9999998353500473
0.9999998353500473
0.9999998353500473
0.9999998353500473
0.9999998353500473
0.9999998353500473
0.9999998353500473
0.9999998353500473
0.9999998353500473
0.9999998353500473
0.9999998353500473
0.9999998353500473
0.9999998353500473
0.9999998353500473
0.9999998353500473
0.9999998353500473
0.9999998353500473
0.9999998353500473
0.9999998353500473
0.9999998353500473
0.9999998353500473
0.9999998353500473
0.9999998353500473
0.9999998353500473
0.9999998353500473
0.9999998353500473
0.9999998353500473
0.9999998353500473
0.9999998353500473
0.9999998353500473
0.9999998353500473
0.9999998353500473
0.9999998353500473
0.9999998353500473
0.9999998353500473
0.9999998353500473
0.9999998353500473
0.9999998353500473
0.9999998353500473
0.9999998353500473
0.9999998353500473
0.9999998353500473
0.9999998353500473
0.9999998353500473
0.9999998353500473
0.9999998353500473
0.9999998353500473
0.9999998353500473
0.9999998353500473
0.9999998353500473
0.9999998353500473
0.9999998353500473
0.9999998353500473
0.9999998353500473
0.9999998353500473
0.9999998353500473
0.9999998353500473
0.9999998353500473
0.9999998353500473
0.9999998353500473
0.9999998353500473
0.9999998353500473
0.9999998353500473
0.9999998353500473
0.9999998353500473
0.9999998353500473
0.9999998353500473
0.9999998353500473
0.9999998353500473
0.9999998353500473
0.9999998353500473
0.9999998353500473
0.9999998353500473
0.9999998353500473
0.9999998353500473
0.9999998353500473
0.9999998353500473
0.9999998353500473
0.9999998353500473
0.9999998353500473
0.9999998353500473
0.9999998353500473
0.9999998353500473
0.9999998353500473
0.9999998353500473
0.9999998353500473
0.9999998353500473
0.9999998353500473
0.9999998353500473
0.9999998353500473
0.9999998353500473
0.9999998353500473
0.9999998353500473
0.9999998353500473
0.9999998353500473
0.9999998353500473
0.9999998353500473
0.9999998353500473
0.9999998353500473
0.9999998353500473
0.9999998353500473
0.9999998353500473
0.9999998353500473
0.9999998353500473
0.9999998353500473
0.9999998353500473
0.9999998353500473
0.9999998353500473
0.9999998353500473
0.9999998353500473
0.9999998353500473
0.9999998353500473
0.9999998353500473
0.9999998353500473
0.9999998353500473
0.9999998353500473
0.9999998353500473
0.9999998353500473
0.9999998353500473
0.9999998353500473
0.9999998353500473
0.9999998353500473
0.9999998353500473
0.9999998353500473
0.9999998353500473
0.9999998353500473
0.9999998353500473
0.9999998353500473
0.9999998353500473
0.9999998353500473
0.9999998353500473
0.9999998353500473
0.9999998353500473
0.9999998353500473
0.9999998353500473
0.9999998353500473
0.9999998353500473
0.9999998353500473
0.9999998353500473
0.9999998353500473
0.9999998353500473
0.9999998353500473
0.9999998353500473
0.9999998353500473
0.9999998353500473
0.9999998353500473
0.9999998353500473
0.9999998353500473
0.9999998353500473
0.9999998353500473
0.9999998353500473
0.9999998353500473
0.9999998353500473
0.9999998353500473
0.9999998353500473
0.9999998353500473
0.9999998353500473
0.9999998353500473
0.9999998353500473
0.9999998353500473
0.9999998353500473
0.9999998353500473
0.9999998353500473
0.9999998353500473
0.9999998353500473
0.9999998353500473
0.9999998353500473
0.9999998353500473
0.9999998353500473
0.9999998353500473
0.9999998353500473
0.9999998353500473
0.9999998353500473
0.9999998353500473
0.9999998353500473
0.9999998353500473
0.9999998353500473
0.9999998353500473
0.9999998353500473
0.9999998353500473
0.9999998353500473
0.9999998353500473
0.9999998353500473
0.9999998353500473
0.9999998353500473
0.9999998353500473
0.9999998353500473
0.9999998353500473
0.9999998353500473
0.9999998353500473
0.9999998353500473
0.9999998353500473
0.9999998353500473
0.9999998353500473
0.9999998353500473
0.9999998353500473
0.9999998353500473
0.9999998353500473
0.9999998353500473
0.9999998353500473
0.9999998353500473
0.9999998353500473
0.9999998353500473
0.9999998353500473
0.9999998353500473
0.9999998353500473
0.9999998353500473
0.9999998353500473
0.9999998353500473
0.9999998353500473
0.9999998353500473
0.9999998353500473
0.9999998353500473
0.9999998353500473
0.9999998353500473
0.9999998353500473
0.9999998353500473
0.9999998353500473
0.9999998353500473
0.9999998353500473
0.9999998353500473
0.9999998353500473
0.9999998353500473
0.9999998353500473
0.9999998353500473
0.9999998353500473
0.9999998353500473
0.9999998353500473
0.9999998353500473
0.9999998353500473
0.9999998353500473
0.9999998353500473
0.9999998353500473
0.9999998353500473
0.9999998353500473
0.9999998353500473
0.9999998353500473
0.9999998353500473
0.9999998353500473
0.9999998353500473
0.9999998353500473
0.9999998353500473
0.9999998353500473
0.9999998353500473
0.9999998353500473
0.9999998353500473
0.9999998353500473
0.9999998353500473
0.9999998353500473
0.9999998353500473
0.9999998353500473
0.9999998353500473
0.9999998353500473
0.9999998353500473
0.9999998353500473
0.9999998353500473
0.9999998353500473
0.9999998353500473
0.9999998353500473
0.9999998353500473
0.9999998353500473
0.9999998353500473
0.9999998353500473
0.9999998353500473
0.9999998353500473
0.9999998353500473
0.9999998353500473
0.9999998353500473
0.9999998353500473
0.9999998353500473
0.9999998353500473
0.9999998353500473
0.9999998353500473
0.9999998353500473
0.9999998353500473
0.9999998353500473
0.9999998353500473
0.9999998353500473
0.9999998353500473
0.9999998353500473
0.9999998353500473
0.9999998353500473
0.9999998353500473
0.9999998353500473
0.9999998353500473
0.9999998353500473
0.9999998353500473
0.9999998353500473
0.9999998353500473
0.9999998353500473
0.9999998353500473
0.9999998353500473
0.9999998353500473
0.9999998353500473
0.9999998353500473
0.9999998353500473
0.9999998353500473
0.9999998353500473
0.9999998353500473
0.9999998353500473
0.9999998353500473
0.9999998353500473
0.9999998353500473
0.9999998353500473
0.9999998353500473
0.9999998353500473
0.9999998353500473
0.9999998353500473
0.9999998353500473
0.9999998353500473
0.9999998353500473
0.9999998353500473
0.9999998353500473
0.9999998353500473
0.9999998353500473
0.9999998353500473
0.9999998353500473
0.9999998353500473
0.9999998353500473
0.9999998353500473
0.9999998353500473
0.9999998353500473
0.9999998353500473
0.9999998353500473
0.9999998353500473
0.9999998353500473
0.9999998353500473
0.9999998353500473
0.9999998353500473
0.9999998353500473
0.9999998353500473
0.9999998353500473
0.9999998353500473
0.9999998353500473
0.9999998353500473
0.9999998353500473
0.9999998353500473
0.9999998353500473
0.9999998353500473
0.9999998353500473
0.9999998353500473
0.9999998353500473
0.9999998353500473
0.9999998353500473
0.9999998353500473
0.9999998353500473
0.9999998353500473
0.9999998353500473
0.9999998353500473
0.9999998353500473
0.9999998353500473
0.9999998353500473
0.9999998353500473
0.9999998353500473
0.9999998353500473
0.9999998353500473
0.9999998353500473
0.9999998353500473
0.9999998353500473
0.9999998353500473
0.9999998353500473
0.9999998353500473
0.9999998353500473
0.9999998353500473
0.9999998353500473
0.9999998353500473
0.9999998353500473
0.9999998353500473
0.9999998353500473
0.9999998353500473
0.9999998353500473
0.9999998353500473
0.9999998353500473
0.9999998353500473
0.9999998353500473
0.9999998353500473
0.9999998353500473
0.9999998353500473
0.9999998353500473
0.9999998353500473
0.9999998353500473
0.9999998353500473
0.9999998353500473
0.9999998353500473
0.9999998353500473
0.9999998353500473
0.9999998353500473
0.9999998353500473
0.9999998353500473
0.9999998353500473
0.9999998353500473
0.9999998353500473
0.9999998353500473
0.9999998353500473
0.9999998353500473
0.9999998353500473
0.9999998353500473
0.9999998353500473
0.9999998353500473
0.9999998353500473
0.9999998353500473
0.9999998353500473
0.9999998353500473
0.9999998353500473
0.9999998353500473
0.9999998353500473
0.9999998353500473
0.9999998353500473
0.9999998353500473
0.9999998353500473
0.9999998353500473
0.9999998353500473
0.9999998353500473
0.9999998353500473
0.9999998353500473
0.9999998353500473
0.9999998353500473
0.9999998353500473
0.9999998353500473
0.9999998353500473
0.9999998353500473
0.9999998353500473
0.9999998353500473
0.9999998353500473
0.9999998353500473
0.9999998353500473
0.9999998353500473
0.9999998353500473
0.9999998353500473
0.9999998353500473
0.9999998353500473
0.9999998353500473
0.9999998353500473
0.9999998353500473
0.9999998353500473
0.9999998353500473
0.9999998353500473
0.9999998353500473
0.9999998353500473
0.9999998353500473
0.9999998353500473
0.9999998353500473
0.9999998353500473
0.9999998353500473
0.9999998353500473
0.9999998353500473
0.9999998353500473
0.9999998353500473
0.9999998353500473
0.9999998353500473
0.9999998353500473
0.9999998353500473
0.9999998353500473
0.9999998353500473
0.9999998353500473
0.9999998353500473
0.9999998353500473
0.9999998353500473
0.9999998353500473
0.9999998353500473
0.9999998353500473
0.9999998353500473
0.9999998353500473
0.9999998353500473
0.9999998353500473
0.9999998353500473
0.9999998353500473
0.9999998353500473
0.9999998353500473
0.9999998353500473
0.9999998353500473
0.9999998353500473
0.9999998353500473
0.9999998353500473
0.9999998353500473
0.9999998353500473
0.9999998353500473
0.9999998353500473
0.9999998353500473
0.9999998353500473
0.9999998353500473
0.9999998353500473
0.9999998353500473
0.9999998353500473
0.9999998353500473
0.9999998353500473
0.9999998353500473
0.9999998353500473
0.9999998353500473
0.9999998353500473
0.9999998353500473
0.9999998353500473
0.9999998353500473
0.9999998353500473
0.9999998353500473
0.9999998353500473
0.9999998353500473
0.9999998353500473
0.9999998353500473
0.9999998353500473
0.9999998353500473
0.9999998353500473
0.9999998353500473
0.9999998353500473
0.9999998353500473
0.9999998353500473
0.9999998353500473
0.9999998353500473
0.9999998353500473
0.9999998353500473
0.9999998353500473
0.9999998353500473
0.9999998353500473
0.9999998353500473
0.9999998353500473
0.9999998353500473
0.9999998353500473
0.9999998353500473
0.9999998353500473
0.9999998353500473
0.9999998353500473
0.9999998353500473
0.9999998353500473
0.9999998353500473
0.9999998353500473
0.9999998353500473
0.9999998353500473
0.9999998353500473
0.9999998353500473
0.9999998353500473
0.9999998353500473
0.9999998353500473
0.9999998353500473
0.9999998353500473
0.9999998353500473
0.9999998353500473
0.9999998353500473
0.9999998353500473
0.9999998353500473
0.9999998353500473
0.9999998353500473
0.9999998353500473
0.9999998353500473
0.9999998353500473
0.9999998353500473
0.9999998353500473
0.9999998353500473
0.9999998353500473
0.9999998353500473
0.9999998353500473
0.9999998353500473
0.9999998353500473
0.9999998353500473
0.9999998353500473
0.9999998353500473
0.9999998353500473
0.9999998353500473
0.9999998353500473
0.9999998353500473
0.9997835727497462
0.9990555338300993
0.9976841221832528
0.9955079047017792
0.9922390374959508
0.987527272680901
0.9810618070567936
0.9724595657124098
0.9612335041465977
0.9466998706927624
0.9280030119587874
0.9042327317019714
0.8742543598236046
0.8366744762457938
0.7898241522097099
0.7317967887853035
0.6603884451497443
0.5730284727897775
0.4668012325127029
0.33849974583884945
0.18442971398273614
0.0
0.0
0.0
0.0
0.0
0.0
0.0
0.0
0.0
0.0
0.0
0.0
0.0
0.0
0.0
0.0
0.0
0.0
0.0
0.0
0.0
0.0
0.0
0.0
0.0
0.0
0.0
0.0
0.0
0.0
0.0
0.0
0.0
0.0
0.0
0.0
0.0
0.0
0.0
0.0
0.0
0.0
0.0
0.0
0.0
0.0
0.0
0.0
0.0
0.0
0.0
0.0
0.0
0.0
0.0
0.0
0.0
0.0
0.0
0.0
0.0
0.0
0.0
0.0
0.0
0.0
0.0
0.0
0.0
0.0
0.0
0.0
0.0
0.0
0.0
0.0
0.0
0.0
0.0
0.0
0.0
0.0
0.0
0.0
0.0
0.0
0.0
0.0
0.0
0.0
0.15319539871909665
0.2899627465450626
0.4101101329813237
0.5142679791711827
0.6035501024152349
0.6793218760548557
0.7430448466146222
0.7961759058390553
0.8401046758970518
0.8761173853492956
0.9053789475007663
0.9289270070289872
0.947673794720831
0.9624127275005843
0.9738277306950154
0.9825038060619704
0.988937951484364
0.9935498314066851
0.9966918128997027
0.9986581867083911
0.9996934791908727
0.9998234410158853
0.9999353305036316
0.9999446829468462
0.9999380273012058
0.9999663930792306
0.9999541082085887
0.9999539633498605
0.9999447032967048
0.9999518517562486
0.9999342262655159
0.9999443431637517
0.9998426315224086
0.9999154599388064
0.999891545518963
0.9997140183543036
0.9998160156460966
0.9998955138528001
0.9997984093487395
0.999880721585058
0.9997390004701439
0.9998884126790031
0.9998638077927314
0.999793456616484
0.9998659325495833
0.9997794239589936
0.9998579826217288
0.999813967190882
0.999797521449897
0.9999062654172819
0.9998016083296092
0.9997850315707396
0.9997528657130271
0.9997857485574768
0.9998289734460641
0.9997958830882765
0.9999706668933505
0.9998467366513202
0.9999749401999848
0.9999798391570762
0.9999676691377879
0.9999740017986498
0.9999755260023836
0.9999778388839199
0.9999493910034027
0.9999551005203261
0.9999519523860793
0.9999517866637506
0.9999739960963862
0.999949794755476
0.9999719772169176
0.999973220332481
0.9999501887361139
0.9999494611885924
0.9999650910702975
0.9999369304681247
0.9998426688096662
0.9998072458421359
0.7624456148157084
0.7189349906626568
0.9998361516235491
0.9997868252754686
0.9999888779423014
0.9998971683091429
0.9165165701161015
0.8945493650351962
0.9999969665654866
1.0000007044841555
1.0000006550651834
0.9999971045429438
0.9999993795325164
0.9999980734161042
0.9999630657848982
0.999963459193172
0.9999518317586462
0.9999709687749413
0.9999624332342014
0.9999593892604686
1.0000007417661396
0.9999980291358651
0.9999950664899726
0.9999517489694549
0.9999599822497555
0.9999603856134281
0.9997981853154099
0.9998016122593708
0.9668908589976303
0.9553480789310599
0.17217273000224745
0.15534753757311076
0.18455536258920793
0.16064984903322424
0.1713074880451451
0.13226466242778687
0.17256098475150322
0.15804607424110226
0.19162332377004196
0.15407120549801973
0.1564582838819106
0.18754946339167172
0.17449825011749515
0.12647991835757585
0.18439186899150128
0.16005572670919288
0.1455496416565818
0.16241140826108436
0.15247377043649943
0.13395223958371857
0.16936309256395646
0.16226323360850348
0.16398109539083106
0.18062649329052152
0.16694952560370738
0.9999522385880937
0.9999620219436376
0.9999468987899574
0.9999459909907414
0.9999484623854104
0.9999613643725611
0.9999475261785352
0.9999650670578603
0.9999594250181314
0.9999394634889496
0.9999558016130868
0.9999501459433959
0.9999230733723657
0.9999617644854261
0.9999739200083152
0.9999495314845336
0.9999567914214433
0.9999564757120079
1.0000116820500276
0.9999452648253134
0.9998140082667003
0.9998125356231368
0.9999523899646553
0.9999420437242152
0.9997861842104195
0.9998659874821103
0.999817404212819
0.9997871984779055
0.9997287908963539
0.9997826015438377
0.9998796807898936
0.9997938510644472
0.999900255334318
0.9998293577086095
0.9997999429622897
0.9999036545809893
0.9999114884541811
0.9997929493334727
0.999752027545903