# vtk DataFile Version 1.0
2D Simulation C++
ASCII
DATASET UNSTRUCTURED_GRID
FIELD FieldData 5
TIME 1 3 double
0.0025 1.0 48.39749999999223
ITERATION 1 1 int
19360
NODES 1 3 int
38203 9794 18616
PARAMETERS 1 5 float
54.5 1 1.0 10 1.0
PRPOPERTIES 1 8 float
1.0 1.0 1.0 1.0 1.0 1.0 1.0 1.0

POINTS 9794 double
0.0 1.0 0.0
1.725 1.0 0.0
1.975 1.0 0.0
2.425 1.0 0.0
2.675 1.0 0.0
3.125 1.0 0.0
3.375 1.0 0.0
3.825 1.0 0.0
4.075 1.0 0.0
4.524999999999999 1.0 0.0
4.774999999999999 1.0 0.0
5.225 1.0 0.0
5.475 1.0 0.0
5.925 1.0 0.0
6.175 1.0 0.0
6.624999999999999 1.0 0.0
6.874999999999999 1.0 0.0
7.325 1.0 0.0
7.575 1.0 0.0
8.025 1.0 0.0
8.275 1.0 0.0
10.0 1.0 0.0
10.0 0.0 0.0
0.0 0.0 0.0
0.01391129032255383 1.0 0.0
0.02782258064510771 1.0 0.0
0.04173387096766158 1.0 0.0
0.05564516129021528 1.0 0.0
0.06955645161276752 1.0 0.0
0.08346774193531808 1.0 0.0
0.09737903225786637 1.0 0.0
0.111290322580416 1.0 0.0
0.1252016129029707 1.0 0.0
0.1391129032255273 1.0 0.0
0.153024193548084 1.0 0.0
0.1669354838706407 1.0 0.0
0.1808467741931973 1.0 0.0
0.1947580645157565 1.0 0.0
0.2086693548383161 1.0 0.0
0.2225806451608671 1.0 0.0
0.2364919354834097 1.0 0.0
0.2504032258059464 1.0 0.0
0.2643145161284873 1.0 0.0
0.2782258064510398 1.0 0.0
0.2921370967735891 1.0 0.0
0.3060483870961269 1.0 0.0
0.3199596774186612 1.0 0.0
0.3338709677412038 1.0 0.0
0.3477822580637493 1.0 0.0
0.3616935483862856 1.0 0.0
0.3756048387088199 1.0 0.0
0.3895161290313543 1.0 0.0
0.4034274193538986 1.0 0.0
0.4173387096764442 1.0 0.0
0.4312499999989788 1.0 0.0
0.4451612903215134 1.0 0.0
0.459072580644059 1.0 0.0
0.4729838709666033 1.0 0.0
0.4868951612891377 1.0 0.0
0.500806451611672 1.0 0.0
0.5147177419342064 1.0 0.0
0.5286290322567406 1.0 0.0
0.5425403225792805 1.0 0.0
0.5564516129018373 1.0 0.0
0.570362903224387 1.0 0.0
0.5842741935469213 1.0 0.0
0.5981854838694557 1.0 0.0
0.6120967741919991 1.0 0.0
0.6260080645145558 1.0 0.0
0.639919354837102 1.0 0.0
0.6538306451596364 1.0 0.0
0.6677419354821708 1.0 0.0
0.6816532258047051 1.0 0.0
0.6955645161272394 1.0 0.0
0.7094758064497737 1.0 0.0
0.723387096772308 1.0 0.0
0.7372983870948423 1.0 0.0
0.7512096774173767 1.0 0.0
0.765120967739911 1.0 0.0
0.7790322580624454 1.0 0.0
0.7929435483849978 1.0 0.0
0.8068548387075546 1.0 0.0
0.8207661290300916 1.0 0.0
0.8346774193526261 1.0 0.0
0.8485887096751603 1.0 0.0
0.8624999999977163 1.0 0.0
0.8764112903203184 1.0 0.0
0.8903225806429423 1.0 0.0
0.9042338709655663 1.0 0.0
0.9181451612881872 1.0 0.0
0.9320564516107885 1.0 0.0
0.9459677419333942 1.0 0.0
0.959879032256018 1.0 0.0
0.9737903225786417 1.0 0.0
0.9877016129012655 1.0 0.0
1.001612903223896 1.0 0.0
1.015524193546535 1.0 0.0
1.029435483869142 1.0 0.0
1.043346774191721 1.0 0.0
1.057258064514319 1.0 0.0
1.071169354836964 1.0 0.0
1.08508064515961 1.0 0.0
1.09899193548221 1.0 0.0
1.112903225804789 1.0 0.0
1.126814516127395 1.0 0.0
1.140725806450046 1.0 0.0
1.154637096772686 1.0 0.0
1.168548387095279 1.0 0.0
1.182459677417858 1.0 0.0
1.19637096774047 1.0 0.0
1.210282258063129 1.0 0.0
1.224193548385761 1.0 0.0
1.238104838708347 1.0 0.0
1.252016129030926 1.0 0.0
1.265927419353546 1.0 0.0
1.279838709676211 1.0 0.0
1.293749999998837 1.0 0.0
1.307661290321416 1.0 0.0
1.321572580643997 1.0 0.0
1.335483870966625 1.0 0.0
1.349395161289288 1.0 0.0
1.363306451611905 1.0 0.0
1.377217741934484 1.0 0.0
1.391129032257073 1.0 0.0
1.405040322579708 1.0 0.0
1.418951612902376 1.0 0.0
1.432862903225031 1.0 0.0
1.446774193547639 1.0 0.0
1.460685483870235 1.0 0.0
1.474596774192877 1.0 0.0
1.488508064515546 1.0 0.0
1.502419354838193 1.0 0.0
1.516330645160794 1.0 0.0
1.530241935483373 1.0 0.0
1.544153225805978 1.0 0.0
1.558064516128628 1.0 0.0
1.571975806451268 1.0 0.0
1.585887096773863 1.0 0.0
1.599798387096442 1.0 0.0
1.613709677419053 1.0 0.0
1.62762096774171 1.0 0.0
1.641532258064344 1.0 0.0
1.655443548386931 1.0 0.0
1.66935483870951 1.0 0.0
1.683266129032129 1.0 0.0
1.697177419354793 1.0 0.0
1.711088709677419 1.0 0.0
1.725732755362433 0.98648512263514 0.0
1.727922430552455 0.9731286948999525 0.0
1.731543353645665 0.9600873086038519 0.0
1.736553072629303 0.9475138621143838 0.0
1.742892853095882 0.9355557676586974 0.0
1.750488366974822 0.9243532228534331 0.0
1.759250563750078 0.9140375673894611 0.0
1.769076714753497 0.9047297428107115 0.0
1.779851617165997 0.896538875002375 0.0
1.791448945293955 0.8895609942420264 0.0
1.803732731051556 0.8838779098360163 0.0
1.81655895828649 0.8795562507677743 0.0
1.82977725103242 0.8766466845836958 0.0
1.843232637053748 0.8751833232346187 0.0
1.856767364184932 0.8751833233017778 0.0
1.870222750163418 0.8766466847797435 0.0
1.883441042867221 0.8795562510881006 0.0
1.896267269921489 0.8838779102237129 0.0
1.908551055569513 0.8895609946998082 0.0
1.920148383559964 0.8965388754945889 0.0
1.930923285873538 0.9047297433433202 0.0
1.940749436717013 0.9140375678825636 0.0
1.949511633398866 0.9243532233450111 0.0
1.957107147170295 0.9355557681010888 0.0
1.963446927576702 0.9475138625596569 0.0
1.968456646473019 0.960087308956096 0.0
1.972077569494175 0.9731286951117961 0.0
1.974267244646171 0.9864851227142606 0.0
2.425732755361873 0.9864851226402883 0.0
2.427922430559173 0.9731286948694332 0.0
2.431543353659265 0.9600873085634886 0.0
2.436553072631993 0.94751386210857 0.0
2.442892853139262 0.9355557675865998 0.0
2.450488366989544 0.9243532228340666 0.0
2.459250563746921 0.9140375673927943 0.0
2.469076714699406 0.9047297428566569 0.0
2.479851617172571 0.896538874997918 0.0
2.4914489451901 0.889560994297087 0.0
2.503732730861895 0.8838779099115839 0.0
2.51655895806569 0.8795562508290791 0.0
2.529777250828765 0.8766466846170832 0.0
2.543232636977021 0.8751833232387787 0.0
2.556767364051104 0.875183323294522 0.0
2.570222750093782 0.8766466847683272 0.0
2.583441042632353 0.8795562510228899 0.0
2.596267269725849 0.883877910145763 0.0
2.608551055323197 0.88956099456922 0.0
2.620148383363268 0.8965388753612257 0.0
2.630923285766916 0.9047297432527547 0.0
2.640749436660204 0.9140375678225919 0.0
2.649511633354254 0.9243532232863265 0.0
2.657107147140439 0.935555768051467 0.0
2.663446927569615 0.9475138625443398 0.0
2.668456646457485 0.960087308909993 0.0
2.672077569490642 0.9731286950957455 0.0
2.674267244646557 0.9864851227178102 0.0
3.125732755361874 0.9864851226402883 0.0
3.127922430559173 0.9731286948694332 0.0
3.131543353659266 0.9600873085634886 0.0
3.136553072631993 0.94751386210857 0.0
3.142892853139262 0.9355557675865998 0.0
3.150488366989544 0.9243532228340666 0.0
3.159250563746921 0.9140375673927943 0.0
3.169076714699406 0.9047297428566569 0.0
3.179851617172571 0.896538874997918 0.0
3.1914489451901 0.889560994297087 0.0
3.203732730861895 0.8838779099115839 0.0
3.21655895806569 0.8795562508290791 0.0
3.229777250828766 0.8766466846170832 0.0
3.243232636977021 0.8751833232387787 0.0
3.256767364051104 0.875183323294522 0.0
3.270222750093782 0.8766466847683272 0.0
3.283441042632353 0.8795562510228899 0.0
3.296267269725849 0.883877910145763 0.0
3.308551055323198 0.88956099456922 0.0
3.320148383363268 0.8965388753612257 0.0
3.330923285766916 0.9047297432527547 0.0
3.340749436660205 0.9140375678225919 0.0
3.349511633354255 0.9243532232863265 0.0
3.357107147140439 0.935555768051467 0.0
3.363446927569615 0.9475138625443398 0.0
3.368456646457485 0.960087308909993 0.0
3.372077569490642 0.9731286950957455 0.0
3.374267244646557 0.9864851227178102 0.0
3.825732755363973 0.9864851226209872 0.0
3.82792243056752 0.9731286948315113 0.0
3.831543353677863 0.9600873085082928 0.0
3.836553072664602 0.9475138620380881 0.0
3.842892853189309 0.9355557675034208 0.0
3.850488367060041 0.9243532227413302 0.0
3.859250563840383 0.9140375672941284 0.0
3.869076714817785 0.9047297427561054 0.0
3.879851617317196 0.8965388748998594 0.0
3.891448945361633 0.889560994206146 0.0
3.903732731060292 0.8838779098325358 0.0
3.916558958290177 0.8795562507667506 0.0
3.929777251077835 0.8766466845762505 0.0
3.943232637248431 0.8751833232240632 0.0
3.9567673643419 0.8751833233102885 0.0
3.970222750400328 0.8766466848185829 0.0
3.983441042950377 0.8795562511111885 0.0
3.996267270050497 0.8838779102751144 0.0
4.00855105563878 0.8895609947365308 0.0
4.020148383647724 0.8965388755540916 0.0
4.030923285999166 0.9047297434500299 0.0
4.040749436838118 0.914037568010413 0.0
4.049511633431294 0.92435322338767 0.0
4.057107147220169 0.9355557681839783 0.0
4.063446927574279 0.9475138625544186 0.0
4.068456646456443 0.9600873089068993 0.0
4.072077569475429 0.9731286950266281 0.0
4.074267244641414 0.9864851226705159 0.0
4.52573275536769 0.986485122586803 0.0
4.527922430568802 0.9731286948256844 0.0
4.531543353648348 0.960087308595889 0.0
4.536553072646869 0.9475138620764161 0.0
4.542892853107371 0.9355557676396022 0.0
4.550488366977604 0.9243532228497733 0.0
4.559250563676403 0.914037567467239 0.0
4.569076714646872 0.9047297429012796 0.0
4.579851617170516 0.8965388749993107 0.0
4.591448945346914 0.8895609942139491 0.0
4.603732731096001 0.8838779098183076 0.0
4.616558958033848 0.8795562508379197 0.0
4.629777250845891 0.8766466846142756 0.0
4.643232637033663 0.8751833232357076 0.0
4.656767364219004 0.8751833233036252 0.0
4.670222750374415 0.8766466848143347 0.0
4.68344104314339 0.8795562511647788 0.0
4.696267270035646 0.8838779102691974 0.0
4.708551055630383 0.8895609947320798 0.0
4.720148383640645 0.8965388755492922 0.0
4.730923285993372 0.9047297434451086 0.0
4.740749436833544 0.9140375680055839 0.0
4.749511633427844 0.9243532233831312 0.0
4.757107147217718 0.9355557681799073 0.0
4.763446927572682 0.947513862550969 0.0
4.768456646455532 0.9600873089041979 0.0
4.772077569475019 0.9731286950247722 0.0
4.774267244641311 0.9864851226695713 0.0
5.225732755369144 0.9864851225734389 0.0
5.227922430577733 0.9731286947851135 0.0
5.231543353665905 0.9600873085437822 0.0
5.236553072675601 0.9475138620143125 0.0
5.242892853138263 0.9355557675882608 0.0
5.250488366968302 0.9243532228620106 0.0
5.259250563693977 0.9140375674486868 0.0
5.269076714665782 0.9047297428852172 0.0
[...]
POINT_DATA 9794
SCALARS psi double
LOOKUP_TABLE default
0.9999998239335909
0.9999998239335909
0.9999998239335909
0.9999998239335909
0.9999998239335909
0.9999998239335909
0.9999998239335909
0.9999998239335909
0.9999998239335909
0.9999998239335909
0.9999998239335909
0.9999998239335909
0.9999998239335909
0.9999998239335909
0.9999998239335909
0.9999998239335909
0.9999998239335909
0.9999998239335909
0.9999998239335909
0.9999998239335909
0.9999998239335909
0.9999998239335909
0.0
0.0
0.9999998239335909
0.9999998239335909
0.9999998239335909
0.9999998239335909
0.9999998239335909
0.9999998239335909
0.9999998239335909
0.9999998239335909
0.9999998239335909
0.9999998239335909
0.9999998239335909
0.9999998239335909
0.9999998239335909
0.9999998239335909
0.9999998239335909
0.9999998239335909
0.9999998239335909
0.9999998239335909
0.9999998239335909
0.9999998239335909
0.9999998239335909
0.9999998239335909
0.9999998239335909
0.9999998239335909
0.9999998239335909
0.9999998239335909
0.9999998239335909
0.9999998239335909
0.9999998239335909
0.9999998239335909
0.9999998239335909
0.9999998239335909
0.9999998239335909
0.9999998239335909
0.9999998239335909
0.9999998239335909
0.9999998239335909
0.9999998239335909
0.9999998239335909
0.9999998239335909
0.9999998239335909
0.9999998239335909
0.9999998239335909
0.9999998239335909
0.9999998239335909
0.9999998239335909
0.9999998239335909
0.9999998239335909
0.9999998239335909
0.9999998239335909
0.9999998239335909
0.9999998239335909
0.9999998239335909
0.9999998239335909
0.9999998239335909
0.9999998239335909
0.9999998239335909
0.9999998239335909
0.9999998239335909
0.9999998239335909
0.9999998239335909
0.9999998239335909
0.9999998239335909
0.9999998239335909
0.9999998239335909
0.9999998239335909
0.9999998239335909
0.9999998239335909
0.9999998239335909
0.9999998239335909
0.9999998239335909
0.9999998239335909
0.9999998239335909
0.9999998239335909
0.9999998239335909
0.9999998239335909
0.9999998239335909
0.9999998239335909
0.9999998239335909
0.9999998239335909
0.9999998239335909
0.9999998239335909
0.9999998239335909
0.9999998239335909
0.9999998239335909
0.9999998239335909
0.9999998239335909
0.9999998239335909
0.9999998239335909
0.9999998239335909
0.9999998239335909
0.9999998239335909
0.9999998239335909
0.9999998239335909
0.9999998239335909
0.9999998239335909
0.9999998239335909
0.9999998239335909
0.9999998239335909
0.9999998239335909
0.9999998239335909
0.9999998239335909
0.9999998239335909
0.9999998239335909
0.9999998239335909
0.9999998239335909
0.9999998239335909
0.9999998239335909
0.9999998239335909
0.9999998239335909
0.9999998239335909
0.9999998239335909
0.9999998239335909
0.9999998239335909
0.9999998239335909
0.9999998239335909
0.9999998239335909
0.9999998239335909
0.9999998239335909
0.9999998239335909
0.9999998239335909
0.9999998239335909
0.9999998239335909
0.9999998239335909
0.9999998239335909
0.9999998239335909
0.9999998239335909
0.9999998239335909
0.9999998239335909
0.9999998239335909
0.9999998239335909
0.9999998239335909
0.9999998239335909
0.9999998239335909
0.9999998239335909
0.9999998239335909
0.9999998239335909
0.9999998239335909
0.9999998239335909
0.9999998239335909
0.9999998239335909
0.9999998239335909
0.9999998239335909
0.9999998239335909
0.9999998239335909
0.9999998239335909
0.9999998239335909
0.9999998239335909
0.9999998239335909
0.9999998239335909
0.9999998239335909
0.9999998239335909
0.9999998239335909
0.9999998239335909
0.9999998239335909
0.9999998239335909
0.9999998239335909
0.9999998239335909
0.9999998239335909
0.9999998239335909
0.9999998239335909
0.9999998239335909
0.9999998239335909
0.9999998239335909
0.9999998239335909
0.9999998239335909
0.9999998239335909
0.9999998239335909
0.9999998239335909
0.9999998239335909
0.9999998239335909
0.9999998239335909
0.9999998239335909
0.9999998239335909
0.9999998239335909
0.9999998239335909
0.9999998239335909
0.9999998239335909
0.9999998239335909
0.9999998239335909
0.9999998239335909
0.9999998239335909
0.9999998239335909
0.9999998239335909
0.9999998239335909
0.9999998239335909
0.9999998239335909
0.9999998239335909
0.9999998239335909
0.9999998239335909
0.9999998239335909
0.9999998239335909
0.9999998239335909
0.9999998239335909
0.9999998239335909
0.9999998239335909
0.9999998239335909
0.9999998239335909
0.9999998239335909
0.9999998239335909
0.9999998239335909
0.9999998239335909
0.9999998239335909
0.9999998239335909
0.9999998239335909
0.9999998239335909
0.9999998239335909
0.9999998239335909
0.9999998239335909
0.9999998239335909
0.9999998239335909
0.9999998239335909
0.9999998239335909
0.9999998239335909
0.9999998239335909
0.9999998239335909
0.9999998239335909
0.9999998239335909
0.9999998239335909
0.9999998239335909
0.9999998239335909
0.9999998239335909
0.9999998239335909
0.9999998239335909
0.9999998239335909
0.9999998239335909
0.9999998239335909
0.9999998239335909
0.9999998239335909
0.9999998239335909
0.9999998239335909
0.9999998239335909
0.9999998239335909
0.9999998239335909
0.9999998239335909
0.9999998239335909
0.9999998239335909
0.9999998239335909
0.9999998239335909
0.9999998239335909
0.9999998239335909
0.9999998239335909
0.9999998239335909
0.9999998239335909
0.9999998239335909
0.9999998239335909
0.9999998239335909
0.9999998239335909
0.9999998239335909
0.9999998239335909
0.9999998239335909
0.9999998239335909
0.9999998239335909
0.9999998239335909
0.9999998239335909
0.9999998239335909
0.9999998239335909
0.9999998239335909
0.9999998239335909
0.9999998239335909
0.9999998239335909
0.9999998239335909
0.9999998239335909
0.9999998239335909
0.9999998239335909
0.9999998239335909
0.9999998239335909
0.9999998239335909
0.9999998239335909
0.9999998239335909
0.9999998239335909
0.9999998239335909
0.9999998239335909
0.9999998239335909
0.9999998239335909
0.9999998239335909
0.9999998239335909
0.9999998239335909
0.9999998239335909
0.9999998239335909
0.9999998239335909
0.9999998239335909
0.9999998239335909
0.9999998239335909
0.9999998239335909
0.9999998239335909
0.9999998239335909
0.9999998239335909
0.9999998239335909
0.9999998239335909
0.9999998239335909
0.9999998239335909
0.9999998239335909
0.9999998239335909
0.9999998239335909
0.9999998239335909
0.9999998239335909
0.9999998239335909
0.9999998239335909
0.9999998239335909
0.9999998239335909
0.9999998239335909
0.9999998239335909
0.9999998239335909
0.9999998239335909
0.9999998239335909
0.9999998239335909
0.9999998239335909
0.9999998239335909
0.9999998239335909
0.9999998239335909
0.9999998239335909
0.9999998239335909
0.9999998239335909
0.9999998239335909
0.9999998239335909
0.9999998239335909
0.9999998239335909
0.9999998239335909
0.9999998239335909
0.9999998239335909
0.9999998239335909
0.9999998239335909
0.9999998239335909
0.9999998239335909
0.9999998239335909
0.9999998239335909
0.9999998239335909
0.9999998239335909
0.9999998239335909
0.9999998239335909
0.9999998239335909
0.9999998239335909
0.9999998239335909
0.9999998239335909
0.9999998239335909
0.9999998239335909
0.9999998239335909
0.9999998239335909
0.9999998239335909
0.9999998239335909
0.9999998239335909
0.9999998239335909
0.9999998239335909
0.9999998239335909
0.9999998239335909
0.9999998239335909
0.9999998239335909
0.9999998239335909
0.9999998239335909
0.9999998239335909
0.9999998239335909
0.9999998239335909
0.9999998239335909
0.9999998239335909
0.9999998239335909
0.9999998239335909
0.9999998239335909
0.9999998239335909
0.9999998239335909
0.9999998239335909
0.9999998239335909
0.9999998239335909
0.9999998239335909
0.9999998239335909
0.9999998239335909
0.9999998239335909
0.9999998239335909
0.9999998239335909
0.9999998239335909
0.9999998239335909
0.9999998239335909
0.9999998239335909
0.9999998239335909
0.9999998239335909
0.9999998239335909
0.9999998239335909
0.9999998239335909
0.9999998239335909
0.9999998239335909
0.9999998239335909
0.9999998239335909
0.9999998239335909
0.9999998239335909
0.9999998239335909
0.9999998239335909
0.9999998239335909
0.9999998239335909
0.9999998239335909
0.9999998239335909
0.9999998239335909
0.9999998239335909
0.9999998239335909
0.9999998239335909
0.9999998239335909
0.9999998239335909
0.9999998239335909
0.9999998239335909
0.9999998239335909
0.9999998239335909
0.9999998239335909
0.9999998239335909
0.9999998239335909
0.9999998239335909
0.9999998239335909
0.9999998239335909
0.9999998239335909
0.9999998239335909
0.9999998239335909
0.9999998239335909
0.9999998239335909
0.9999998239335909
0.9999998239335909
0.9999998239335909
0.9999998239335909
0.9999998239335909
0.9999998239335909
0.9999998239335909
0.9999998239335909
0.9999998239335909
0.9999998239335909
0.9999998239335909
0.9999998239335909
0.9999998239335909
0.9999998239335909
0.9999998239335909
0.9999998239335909
0.9999998239335909
0.9999998239335909
0.9999998239335909
0.9999998239335909
0.9999998239335909
0.9999998239335909
0.9999998239335909
0.9999998239335909
0.9999998239335909
0.9999998239335909
0.9999998239335909
0.9999998239335909
0.9999998239335909
0.9999998239335909
0.9999998239335909
0.9999998239335909
0.9999998239335909
0.9999998239335909
0.9999998239335909
0.9999998239335909
0.9999998239335909
0.9999998239335909
0.9999998239335909
0.9999998239335909
0.9999998239335909
0.9999998239335909
0.9999998239335909
0.9999998239335909
0.9999998239335909
0.9999998239335909
0.9999998239335909
0.9999998239335909
0.9999998239335909
0.9999998239335909
0.9999998239335909
0.9999998239335909
0.9999998239335909
0.9999998239335909
0.9999998239335909
0.9999998239335909
0.9999998239335909
0.9999998239335909
0.9999998239335909
0.9999998239335909
0.9999998239335909
0.9999998239335909
0.9999998239335909
0.9999998239335909
0.9999998239335909
0.9999998239335909
0.9999998239335909
0.9999998239335909
0.9999998239335909
0.9999998239335909
0.9999998239335909
0.9999998239335909
0.9999998239335909
0.9999998239335909
0.9999998239335909
0.9999998239335909
0.9999998239335909
0.9999998239335909
0.9999998239335909
0.9999998239335909
0.9999998239335909
0.9999998239335909
0.9999998239335909
0.9999998239335909
0.9999998239335909
0.9999998239335909
0.9999998239335909
0.9999998239335909
0.9999998239335909
0.9999998239335909
0.9999998239335909
0.9999998239335909
0.9999998239335909
0.9999998239335909
0.9999998239335909
0.9999998239335909
0.9999998239335909
0.9999998239335909
0.9999998239335909
0.9999998239335909
0.9999998239335909
0.9999998239335909
0.9999998239335909
0.9999998239335909
0.9999998239335909
0.9999998239335909
0.9999998239335909
0.9999998239335909
0.9999998239335909
0.9999998239335909
0.9999998239335909
0.9999998239335909
0.9999998239335909
0.9999998239335909
0.9999998239335909
0.9999998239335909
0.9999998239335909
0.9999998239335909
0.9999998239335909
0.9999998239335909
0.9999998239335909
0.9999998239335909
0.9999998239335909
0.9999998239335909
0.9999998239335909
0.9999998239335909
0.9999998239335909
0.9999998239335909
0.9999998239335909
0.9999998239335909
0.9999998239335909
0.9999998239335909
0.9999998239335909
0.9999998239335909
0.9999998239335909
0.9999998239335909
0.9999998239335909
0.9999998239335909
0.9999998239335909
0.9999998239335909
0.9999998239335909
0.9999998239335909
0.9999998239335909
0.9999998239335909
0.9999998239335909
0.9999998239335909
0.9999998239335909
0.9999998239335909
0.9999998239335909
0.9999998239335909
0.9999998239335909
0.9999998239335909
0.9999998239335909
0.9999998239335909
0.9999998239335909
0.9999998239335909
0.9999998239335909
0.9999998239335909
0.9999998239335909
0.9999998239335909
0.9999998239335909
0.9999998239335909
0.9999998239335909
0.9999998239335909
0.9999998239335909
0.9999998239335909
0.9999998239335909
0.9999998239335909
0.9999998239335909
0.9999998239335909
0.9999998239335909
0.9999998239335909
0.9999998239335909
0.9999998239335909
0.9999998239335909
0.9999998239335909
0.9999998239335909
0.9999998239335909
0.9999998239335909
0.9999998239335909
0.9999998239335909
0.9999998239335909
0.9999998239335909
0.9999998239335909
0.9999998239335909
0.9999998239335909
0.9999998239335909
0.9999998239335909
0.9999998239335909
0.9999998239335909
0.9999998239335909
0.9999998239335909
0.9999998239335909
0.9999998239335909
0.9999998239335909
0.9999998239335909
0.9999998239335909
0.9999998239335909
0.9999998239335909
0.9999998239335909
0.9999998239335909
0.9999998239335909
0.9999998239335909
0.9999998239335909
0.9999998239335909
0.9999998239335909
0.9999998239335909
0.9999998239335909
0.9999998239335909
0.9999998239335909
0.9999998239335909
0.9999998239335909
0.9999998239335909
0.9999998239335909
0.9999998239335909
0.9999998239335909
0.9999998239335909
0.9999998239335909
0.9999998239335909
0.9999998239335909
0.9999998239335909
0.9999998239335909
0.9999998239335909
0.9999998239335909
0.9999998239335909
0.9999998239335909
0.9999998239335909
0.9999998239335909
0.9999998239335909
0.9999998239335909
0.9999998239335909
0.9999998239335909
0.9999998239335909
0.9999998239335909
0.9999998239335909
0.9999998239335909
0.9999998239335909
0.9999998239335909
0.9999998239335909
0.9999998239335909
0.9999998239335909
0.9999998239335909
0.9999998239335909
0.9999998239335909
0.9999998239335909
0.9999998239335909
0.9999998239335909
0.9999998239335909
0.9999998239335909
0.9999998239335909
0.9999998239335909
0.9999998239335909
0.9999998239335909
0.9999998239335909
0.9999998239335909
0.9999998239335909
0.9999998239335909
0.9999998239335909
0.9999998239335909
0.9999998239335909
0.9999998239335909
0.9999998239335909
0.9999998239335909
0.9999998239335909
0.9999998239335909
0.9999998239335909
0.9999998239335909
0.9999998239335909
0.9999998239335909
0.9999998239335909
0.9999998239335909
0.9999998239335909
0.9999998239335909
0.9999998239335909
0.9999998239335909
0.9999998239335909
0.9999998239335909
0.9999998239335909
0.9999998239335909
0.9999998239335909
0.9999998239335909
0.9999998239335909
0.9999998239335909
0.9999998239335909
0.9999998239335909
0.9999998239335909
0.9999998239335909
0.9999998239335909
0.9999998239335909
0.9999998239335909
0.9999998239335909
0.9999998239335909
0.9999998239335909
0.9999998239335909
0.9999998239335909
0.9999998239335909
0.9999998239335909
0.9999998239335909
0.9999998239335909
0.9999998239335909
0.9999998239335909
0.9999998239335909
0.9999998239335909
0.9999998239335909
0.9999998239335909
0.9999998239335909
0.9999998239335909
0.9999998239335909
0.9999998239335909
0.9999998239335909
0.9999998239335909
0.9999998239335909
0.9999998239335909
0.9999998239335909
0.9999998239335909
0.9999998239335909
0.9999998239335909
0.9999998239335909
0.9999998239335909
0.9999998239335909
0.9999998239335909
0.9999998239335909
0.9999998239335909
0.9999998239335909
0.9999998239335909
0.9999998239335909
0.9999998239335909
0.9999998239335909
0.9999998239335909
0.9999998239335909
0.9999998239335909
0.9999998239335909
0.9999998239335909
0.9999998239335909
0.9999998239335909
0.9999998239335909
0.9999998239335909
0.9999998239335909
0.9999998239335909
0.9999998239335909
0.9999998239335909
0.9999998239335909
0.9999998239335909
0.9999998239335909
0.9999998239335909
0.9999998239335909
0.9999998239335909
0.9999998239335909
0.9999998239335909
0.9999998239335909
0.9999998239335909
0.9999998239335909
0.9999998239335909
0.9999998239335909
0.9999998239335909
0.9999998239335909
0.9999998239335909
0.9999998239335909
0.9999998239335909
0.9999998239335909
0.9999998239335909
0.9999998239335909
0.9999998239335909
0.9999998239335909
0.9999998239335909
0.9999998239335909
0.9999998239335909
0.9999998239335909
0.9999998239335909
0.9999998239335909
0.9999998239335909
0.9999998239335909
0.9999998239335909
0.9999998239335909
0.9999998239335909
0.9999998239335909
0.9999998239335909
0.9999998239335909
0.9999998239335909
0.9999998239335909
0.9999998239335909
0.9999998239335909
0.9999998239335909
0.9999998239335909
0.9999998239335909
0.9999998239335909
0.9999998239335909
0.9999998239335909
0.9999998239335909
0.9999998239335909
0.9999998239335909
0.9999998239335909
0.9999998239335909
0.9999998239335909
0.9999998239335909
0.9999998239335909
0.9999998239335909
0.9999998239335909
0.9999998239335909
0.9999998239335909
0.9999998239335909
0.9999998239335909
0.9999998239335909
0.999782431903757
0.9990541056701097
0.9976834058258589
0.9955089106674396
0.9922417962003663
0.9875308286198828
0.9810657048579204
0.972463684178583
0.9612386681352451
0.9467053800428966
0.9280070050935426
0.9042357349967847
0.8742566687565164
0.8366763385631982
0.7898251640397721
0.7317968325821537
0.6603874793615402
0.5730267398400947
0.4667993666567303
0.3384981296671918
0.18442867136354263
0.0
0.0
0.0
0.0
0.0
0.0
0.0
0.0
0.0
0.0
0.0
0.0
0.0
0.0
0.0
0.0
0.0
0.0
0.0
0.0
0.0
0.0
0.0
0.0
0.0
0.0
0.0
0.0
0.0
0.0
0.0
0.0
0.0
0.0
0.0
0.0
0.0
0.0
0.0
0.0
0.0
0.0
0.0
0.0
0.0
0.0
0.0
0.0
0.0
0.0
0.0
0.0
0.0
0.0
0.0
0.0
0.0
0.0
0.0
0.0
0.0
0.0
0.0
0.0
0.0
0.0
0.0
0.0
0.0
0.0
0.0
0.0
0.0
0.0
0.0
0.0
0.0
0.0
0.0
0.0
0.0
0.0
0.0
0.0
0.0
0.0
0.0
0.0
0.0
0.0
0.15319539697014753
0.2899627432347147
0.41011012829931803
0.5142679733000628
0.6035500955248296
0.6793218682994043
0.7430448381316807
0.7961758967495464
0.8401046663060315
0.8761173753471365
0.9053789371645452
0.9289269964239311
0.9476737839017518
0.9624127165132387
0.9738277195773516
0.9825037948452578
0.9889379401941946
0.9935498200638666
0.9966918015210111
0.9986581753072523
0.9996934677779128
0.999823493163586
0.9999353919454502
0.9999447767706223
0.9999378681339199
0.9999665264494616
0.9999541829611723
0.9999540583044971
0.9999445715188254
0.999951997136639
0.9999340848296514
0.9999441875575338
0.9998426380661081
0.9999154862831331
0.9998916466925678
0.9997139633286255
0.9998160586373408
0.9998954489141665
0.9997982094359903
0.999880701195634
0.9997389409180413
0.9998884064424356
0.9998638194842541
0.99979346379557
0.9998660218984922
0.9997795531310871
0.9998579374177066
0.9998138661448326
0.9997975591963628
0.9999063411845964
0.9998015004336825
0.9997849717670024
0.9997529923137926
0.9997854062159869
0.9998291180113619
0.9997958481809013
0.9999706240399413
0.9998466271499921
0.9999748905539246
0.9999798985615781
0.9999677316183789
0.9999740840300582
0.9999752954003178
0.9999777137184811
0.999949410188653
0.9999550137022082
0.9999519540042624
0.999951715580785
0.9999741226903509
0.9999498884901514
0.9999720146874699
0.999973054668873
0.9999501062826512
0.9999492553079561
0.9999651504526076
0.999936992942191
0.9998428199471183
0.9998071747578746
0.7624458662914454
0.71893484887558
0.9998361954978797
0.9997868221092303
0.9999887887299714
0.9998971080183464
0.916519630674088
0.8945493155163927
0.9999969599146481
1.0000008944028271
1.000000662055909
0.9999972682288153
0.999999247917264
0.9999980770927237
0.9999630014418044
0.999963249331403
0.9999518527952095
0.999970935060553
0.9999624600262156
0.9999587260087947
1.0000006676921902
0.9999980382832757
0.9999954578214549
0.9999518510139606
0.9999601015248527
0.9999603997341554
0.9997981746124319
0.9998016311143715
0.9668953290393411
0.9553481983924318
0.17217148153178127
0.15534691170558457
0.18455872139397855
0.16064957093237325
0.17130638320394126
0.1322634909187825
0.17255999260073818
0.1580465636483002
0.1916234790423384
0.15407071977472858
0.15645826922122974
0.18755177162094
0.17449924669969485
0.12648029407840758
0.18439150683822883
0.160055854521809
0.1455494460918149
0.16241239008883263
0.15247547643485782
0.13395275874042747
0.16936240446933673
0.1622649742492907
0.16398437321955103
0.18062659535617206
0.16694992751560023
0.999952367090717
0.9999623806853146
0.999946900286638
0.9999457039859744
0.9999485394608834
0.9999613318218902
0.9999476982842901
0.9999649319803181
0.9999590196645168
0.9999393279259366
0.999955462803985
0.9999503200418252
0.999923032656139
0.9999618362117068
0.9999735446521913
0.9999496591428246
0.9999567885664707
0.9999565101523753
1.0000115263916276
0.999945228050669
0.9998138057029731
0.9998124549575947
0.9999523778487129
0.9999420636052753
0.9997862828875129
0.9998660721245984
0.9998174344692771
0.9997872031539718
0.9997287478318673
0.9997825658146337
0.9998795669705048
0.9997938925898375
0.9999001879850686
0.9998294333650294
0.9998000142051557
0.9999036029083225
0.9999114784983232
0.999792866025661
0.9997519567137089
0.9998512237517233