# vtk DataFile Version 1.0
2D Simulation C++
ASCII
DATASET UNSTRUCTURED_GRID
FIELD FieldData 5
TIME 1 3 double
0.0025 1.0 69.97249999997261
ITERATION 1 1 int
27990
NODES 1 3 int
38203 9794 18616
PARAMETERS 1 5 float
54.5 1000 1.0 10 1.0
PRPOPERTIES 1 8 float
1.0 1.0 1.0 1.0 1.0 1.0 1.0 1.0

POINTS 9794 double
0.0 1.0 0.0
1.725 1.0 0.0
1.975 1.0 0.0
2.425 1.0 0.0
2.675 1.0 0.0
3.125 1.0 0.0
3.375 1.0 0.0
3.825 1.0 0.0
4.075 1.0 0.0
4.524999999999999 1.0 0.0
4.774999999999999 1.0 0.0
5.225 1.0 0.0
5.475 1.0 0.0
5.925 1.0 0.0
6.175 1.0 0.0
6.624999999999999 1.0 0.0
6.874999999999999 1.0 0.0
7.325 1.0 0.0
7.575 1.0 0.0
8.025 1.0 0.0
8.275 1.0 0.0
10.0 1.0 0.0
10.0 0.0 0.0
0.0 0.0 0.0
0.01391129032255383 1.0 0.0
0.02782258064510771 1.0 0.0
0.04173387096766158 1.0 0.0
0.05564516129021528 1.0 0.0
0.06955645161276752 1.0 0.0
0.08346774193531808 1.0 0.0
0.09737903225786637 1.0 0.0
0.111290322580416 1.0 0.0
0.1252016129029707 1.0 0.0
0.1391129032255273 1.0 0.0
0.153024193548084 1.0 0.0
0.1669354838706407 1.0 0.0
0.1808467741931973 1.0 0.0
0.1947580645157565 1.0 0.0
0.2086693548383161 1.0 0.0
0.2225806451608671 1.0 0.0
0.2364919354834097 1.0 0.0
0.2504032258059464 1.0 0.0
0.2643145161284873 1.0 0.0
0.2782258064510398 1.0 0.0
0.2921370967735891 1.0 0.0
0.3060483870961269 1.0 0.0
0.3199596774186612 1.0 0.0
0.3338709677412038 1.0 0.0
0.3477822580637493 1.0 0.0
0.3616935483862856 1.0 0.0
0.3756048387088199 1.0 0.0
0.3895161290313543 1.0 0.0
0.4034274193538986 1.0 0.0
0.4173387096764442 1.0 0.0
0.4312499999989788 1.0 0.0
0.4451612903215134 1.0 0.0
0.459072580644059 1.0 0.0
0.4729838709666033 1.0 0.0
0.4868951612891377 1.0 0.0
0.500806451611672 1.0 0.0
0.5147177419342064 1.0 0.0
0.5286290322567406 1.0 0.0
0.5425403225792805 1.0 0.0
0.5564516129018373 1.0 0.0
0.570362903224387 1.0 0.0
0.5842741935469213 1.0 0.0
0.5981854838694557 1.0 0.0
0.6120967741919991 1.0 0.0
0.6260080645145558 1.0 0.0
0.639919354837102 1.0 0.0
0.6538306451596364 1.0 0.0
0.6677419354821708 1.0 0.0
0.6816532258047051 1.0 0.0
0.6955645161272394 1.0 0.0
0.7094758064497737 1.0 0.0
0.723387096772308 1.0 0.0
0.7372983870948423 1.0 0.0
0.7512096774173767 1.0 0.0
0.765120967739911 1.0 0.0
0.7790322580624454 1.0 0.0
0.7929435483849978 1.0 0.0
0.8068548387075546 1.0 0.0
0.8207661290300916 1.0 0.0
0.8346774193526261 1.0 0.0
0.8485887096751603 1.0 0.0
0.8624999999977163 1.0 0.0
0.8764112903203184 1.0 0.0
0.8903225806429423 1.0 0.0
0.9042338709655663 1.0 0.0
0.9181451612881872 1.0 0.0
0.9320564516107885 1.0 0.0
0.9459677419333942 1.0 0.0
0.959879032256018 1.0 0.0
0.9737903225786417 1.0 0.0
0.9877016129012655 1.0 0.0
1.001612903223896 1.0 0.0
1.015524193546535 1.0 0.0
1.029435483869142 1.0 0.0
1.043346774191721 1.0 0.0
1.057258064514319 1.0 0.0
1.071169354836964 1.0 0.0
1.08508064515961 1.0 0.0
1.09899193548221 1.0 0.0
1.112903225804789 1.0 0.0
1.126814516127395 1.0 0.0
1.140725806450046 1.0 0.0
1.154637096772686 1.0 0.0
1.168548387095279 1.0 0.0
1.182459677417858 1.0 0.0
1.19637096774047 1.0 0.0
1.210282258063129 1.0 0.0
1.224193548385761 1.0 0.0
1.238104838708347 1.0 0.0
1.252016129030926 1.0 0.0
1.265927419353546 1.0 0.0
1.279838709676211 1.0 0.0
1.293749999998837 1.0 0.0
1.307661290321416 1.0 0.0
1.321572580643997 1.0 0.0
1.335483870966625 1.0 0.0
1.349395161289288 1.0 0.0
1.363306451611905 1.0 0.0
1.377217741934484 1.0 0.0
1.391129032257073 1.0 0.0
1.405040322579708 1.0 0.0
1.418951612902376 1.0 0.0
1.432862903225031 1.0 0.0
1.446774193547639 1.0 0.0
1.460685483870235 1.0 0.0
1.474596774192877 1.0 0.0
1.488508064515546 1.0 0.0
1.502419354838193 1.0 0.0
1.516330645160794 1.0 0.0
1.530241935483373 1.0 0.0
1.544153225805978 1.0 0.0
1.558064516128628 1.0 0.0
1.571975806451268 1.0 0.0
1.585887096773863 1.0 0.0
1.599798387096442 1.0 0.0
1.613709677419053 1.0 0.0
1.62762096774171 1.0 0.0
1.641532258064344 1.0 0.0
1.655443548386931 1.0 0.0
1.66935483870951 1.0 0.0
1.683266129032129 1.0 0.0
1.697177419354793 1.0 0.0
1.711088709677419 1.0 0.0
1.725732755362433 0.98648512263514 0.0
1.727922430552455 0.9731286948999525 0.0
1.731543353645665 0.9600873086038519 0.0
1.736553072629303 0.9475138621143838 0.0
1.742892853095882 0.9355557676586974 0.0
1.750488366974822 0.9243532228534331 0.0
1.759250563750078 0.9140375673894611 0.0
1.769076714753497 0.9047297428107115 0.0
1.779851617165997 0.896538875002375 0.0
1.791448945293955 0.8895609942420264 0.0
1.803732731051556 0.8838779098360163 0.0
1.81655895828649 0.8795562507677743 0.0
1.82977725103242 0.8766466845836958 0.0
1.843232637053748 0.8751833232346187 0.0
1.856767364184932 0.8751833233017778 0.0
1.870222750163418 0.8766466847797435 0.0
1.883441042867221 0.8795562510881006 0.0
1.896267269921489 0.8838779102237129 0.0
1.908551055569513 0.8895609946998082 0.0
1.920148383559964 0.8965388754945889 0.0
1.930923285873538 0.9047297433433202 0.0
1.940749436717013 0.9140375678825636 0.0
1.949511633398866 0.9243532233450111 0.0
1.957107147170295 0.9355557681010888 0.0
1.963446927576702 0.9475138625596569 0.0
1.968456646473019 0.960087308956096 0.0
1.972077569494175 0.9731286951117961 0.0
1.974267244646171 0.9864851227142606 0.0
2.425732755361873 0.9864851226402883 0.0
2.427922430559173 0.9731286948694332 0.0
2.431543353659265 0.9600873085634886 0.0
2.436553072631993 0.94751386210857 0.0
2.442892853139262 0.9355557675865998 0.0
2.450488366989544 0.9243532228340666 0.0
2.459250563746921 0.9140375673927943 0.0
2.469076714699406 0.9047297428566569 0.0
2.479851617172571 0.896538874997918 0.0
2.4914489451901 0.889560994297087 0.0
2.503732730861895 0.8838779099115839 0.0
2.51655895806569 0.8795562508290791 0.0
2.529777250828765 0.8766466846170832 0.0
2.543232636977021 0.8751833232387787 0.0
2.556767364051104 0.875183323294522 0.0
2.570222750093782 0.8766466847683272 0.0
2.583441042632353 0.8795562510228899 0.0
2.596267269725849 0.883877910145763 0.0
2.608551055323197 0.88956099456922 0.0
2.620148383363268 0.8965388753612257 0.0
2.630923285766916 0.9047297432527547 0.0
2.640749436660204 0.9140375678225919 0.0
2.649511633354254 0.9243532232863265 0.0
2.657107147140439 0.935555768051467 0.0
2.663446927569615 0.9475138625443398 0.0
2.668456646457485 0.960087308909993 0.0
2.672077569490642 0.9731286950957455 0.0
2.674267244646557 0.9864851227178102 0.0
3.125732755361874 0.9864851226402883 0.0
3.127922430559173 0.9731286948694332 0.0
3.131543353659266 0.9600873085634886 0.0
3.136553072631993 0.94751386210857 0.0
3.142892853139262 0.9355557675865998 0.0
3.150488366989544 0.9243532228340666 0.0
3.159250563746921 0.9140375673927943 0.0
3.169076714699406 0.9047297428566569 0.0
3.179851617172571 0.896538874997918 0.0
3.1914489451901 0.889560994297087 0.0
3.203732730861895 0.8838779099115839 0.0
3.21655895806569 0.8795562508290791 0.0
3.229777250828766 0.8766466846170832 0.0
3.243232636977021 0.8751833232387787 0.0
3.256767364051104 0.875183323294522 0.0
3.270222750093782 0.8766466847683272 0.0
3.283441042632353 0.8795562510228899 0.0
3.296267269725849 0.883877910145763 0.0
3.308551055323198 0.88956099456922 0.0
3.320148383363268 0.8965388753612257 0.0
3.330923285766916 0.9047297432527547 0.0
3.340749436660205 0.9140375678225919 0.0
3.349511633354255 0.9243532232863265 0.0
3.357107147140439 0.935555768051467 0.0
3.363446927569615 0.9475138625443398 0.0
3.368456646457485 0.960087308909993 0.0
3.372077569490642 0.9731286950957455 0.0
3.374267244646557 0.9864851227178102 0.0
3.825732755363973 0.9864851226209872 0.0
3.82792243056752 0.9731286948315113 0.0
3.831543353677863 0.9600873085082928 0.0
3.836553072664602 0.9475138620380881 0.0
3.842892853189309 0.9355557675034208 0.0
3.850488367060041 0.9243532227413302 0.0
3.859250563840383 0.9140375672941284 0.0
3.869076714817785 0.9047297427561054 0.0
3.879851617317196 0.8965388748998594 0.0
3.891448945361633 0.889560994206146 0.0
3.903732731060292 0.8838779098325358 0.0
3.916558958290177 0.8795562507667506 0.0
3.929777251077835 0.8766466845762505 0.0
3.943232637248431 0.8751833232240632 0.0
3.9567673643419 0.8751833233102885 0.0
3.970222750400328 0.8766466848185829 0.0
3.983441042950377 0.8795562511111885 0.0
3.996267270050497 0.8838779102751144 0.0
4.00855105563878 0.8895609947365308 0.0
4.020148383647724 0.8965388755540916 0.0
4.030923285999166 0.9047297434500299 0.0
4.040749436838118 0.914037568010413 0.0
4.049511633431294 0.92435322338767 0.0
4.057107147220169 0.9355557681839783 0.0
4.063446927574279 0.9475138625544186 0.0
4.068456646456443 0.9600873089068993 0.0
4.072077569475429 0.9731286950266281 0.0
4.074267244641414 0.9864851226705159 0.0
4.52573275536769 0.986485122586803 0.0
4.527922430568802 0.9731286948256844 0.0
4.531543353648348 0.960087308595889 0.0
4.536553072646869 0.9475138620764161 0.0
4.542892853107371 0.9355557676396022 0.0
4.550488366977604 0.9243532228497733 0.0
4.559250563676403 0.914037567467239 0.0
4.569076714646872 0.9047297429012796 0.0
4.579851617170516 0.8965388749993107 0.0
4.591448945346914 0.8895609942139491 0.0
4.603732731096001 0.8838779098183076 0.0
4.616558958033848 0.8795562508379197 0.0
4.629777250845891 0.8766466846142756 0.0
4.643232637033663 0.8751833232357076 0.0
4.656767364219004 0.8751833233036252 0.0
4.670222750374415 0.8766466848143347 0.0
4.68344104314339 0.8795562511647788 0.0
4.696267270035646 0.8838779102691974 0.0
4.708551055630383 0.8895609947320798 0.0
4.720148383640645 0.8965388755492922 0.0
4.730923285993372 0.9047297434451086 0.0
4.740749436833544 0.9140375680055839 0.0
4.749511633427844 0.9243532233831312 0.0
4.757107147217718 0.9355557681799073 0.0
4.763446927572682 0.947513862550969 0.0
4.768456646455532 0.9600873089041979 0.0
4.772077569475019 0.9731286950247722 0.0
4.774267244641311 0.9864851226695713 0.0
5.225732755369144 0.9864851225734389 0.0
5.227922430577733 0.9731286947851135 0.0
5.231543353665905 0.9600873085437822 0.0
5.236553072675601 0.9475138620143125 0.0
5.242892853138263 0.9355557675882608 0.0
5.250488366968302 0.9243532228620106 0.0
5.259250563693977 0.9140375674486868 0.0
5.269076714665782 0.9047297428852172 0.0
[...]
POINT_DATA 9794
SCALARS psi double
LOOKUP_TABLE default
0.9999998356985486
0.9999998356985486
0.9999998356985486
0.9999998356985486
0.9999998356985486
0.9999998356985486
0.9999998356985486
0.9999998356985486
0.9999998356985486
0.9999998356985486
0.9999998356985486
0.9999998356985486
0.9999998356985486
0.9999998356985486
0.9999998356985486
0.9999998356985486
0.9999998356985486
0.9999998356985486
0.9999998356985486
0.9999998356985486
0.9999998356985486
0.9999998356985486
0.0
0.0
0.9999998356985486
0.9999998356985486
0.9999998356985486
0.9999998356985486
0.9999998356985486
0.9999998356985486
0.9999998356985486
0.9999998356985486
0.9999998356985486
0.9999998356985486
0.9999998356985486
0.9999998356985486
0.9999998356985486
0.9999998356985486
0.9999998356985486
0.9999998356985486
0.9999998356985486
0.9999998356985486
0.9999998356985486
0.9999998356985486
0.9999998356985486
0.9999998356985486
0.9999998356985486
0.9999998356985486
0.9999998356985486
0.9999998356985486
0.9999998356985486
0.9999998356985486
0.9999998356985486
0.9999998356985486
0.9999998356985486
0.9999998356985486
0.9999998356985486
0.9999998356985486
0.9999998356985486
0.9999998356985486
0.9999998356985486
0.9999998356985486
0.9999998356985486
0.9999998356985486
0.9999998356985486
0.9999998356985486
0.9999998356985486
0.9999998356985486
0.9999998356985486
0.9999998356985486
0.9999998356985486
0.9999998356985486
0.9999998356985486
0.9999998356985486
0.9999998356985486
0.9999998356985486
0.9999998356985486
0.9999998356985486
0.9999998356985486
0.9999998356985486
0.9999998356985486
0.9999998356985486
0.9999998356985486
0.9999998356985486
0.9999998356985486
0.9999998356985486
0.9999998356985486
0.9999998356985486
0.9999998356985486
0.9999998356985486
0.9999998356985486
0.9999998356985486
0.9999998356985486
0.9999998356985486
0.9999998356985486
0.9999998356985486
0.9999998356985486
0.9999998356985486
0.9999998356985486
0.9999998356985486
0.9999998356985486
0.9999998356985486
0.9999998356985486
0.9999998356985486
0.9999998356985486
0.9999998356985486
0.9999998356985486
0.9999998356985486
0.9999998356985486
0.9999998356985486
0.9999998356985486
0.9999998356985486
0.9999998356985486
0.9999998356985486
0.9999998356985486
0.9999998356985486
0.9999998356985486
0.9999998356985486
0.9999998356985486
0.9999998356985486
0.9999998356985486
0.9999998356985486
0.9999998356985486
0.9999998356985486
0.9999998356985486
0.9999998356985486
0.9999998356985486
0.9999998356985486
0.9999998356985486
0.9999998356985486
0.9999998356985486
0.9999998356985486
0.9999998356985486
0.9999998356985486
0.9999998356985486
0.9999998356985486
0.9999998356985486
0.9999998356985486
0.9999998356985486
0.9999998356985486
0.9999998356985486
0.9999998356985486
0.9999998356985486
0.9999998356985486
0.9999998356985486
0.9999998356985486
0.9999998356985486
0.9999998356985486
0.9999998356985486
0.9999998356985486
0.9999998356985486
0.9999998356985486
0.9999998356985486
0.9999998356985486
0.9999998356985486
0.9999998356985486
0.9999998356985486
0.9999998356985486
0.9999998356985486
0.9999998356985486
0.9999998356985486
0.9999998356985486
0.9999998356985486
0.9999998356985486
0.9999998356985486
0.9999998356985486
0.9999998356985486
0.9999998356985486
0.9999998356985486
0.9999998356985486
0.9999998356985486
0.9999998356985486
0.9999998356985486
0.9999998356985486
0.9999998356985486
0.9999998356985486
0.9999998356985486
0.9999998356985486
0.9999998356985486
0.9999998356985486
0.9999998356985486
0.9999998356985486
0.9999998356985486
0.9999998356985486
0.9999998356985486
0.9999998356985486
0.9999998356985486
0.9999998356985486
0.9999998356985486
0.9999998356985486
0.9999998356985486
0.9999998356985486
0.9999998356985486
0.9999998356985486
0.9999998356985486
0.9999998356985486
0.9999998356985486
0.9999998356985486
0.9999998356985486
0.9999998356985486
0.9999998356985486
0.9999998356985486
0.9999998356985486
0.9999998356985486
0.9999998356985486
0.9999998356985486
0.9999998356985486
0.9999998356985486
0.9999998356985486
0.9999998356985486
0.9999998356985486
0.9999998356985486
0.9999998356985486
0.9999998356985486
0.9999998356985486
0.9999998356985486
0.9999998356985486
0.9999998356985486
0.9999998356985486
0.9999998356985486
0.9999998356985486
0.9999998356985486
0.9999998356985486
0.9999998356985486
0.9999998356985486
0.9999998356985486
0.9999998356985486
0.9999998356985486
0.9999998356985486
0.9999998356985486
0.9999998356985486
0.9999998356985486
0.9999998356985486
0.9999998356985486
0.9999998356985486
0.9999998356985486
0.9999998356985486
0.9999998356985486
0.9999998356985486
0.9999998356985486
0.9999998356985486
0.9999998356985486
0.9999998356985486
0.9999998356985486
0.9999998356985486
0.9999998356985486
0.9999998356985486
0.9999998356985486
0.9999998356985486
0.9999998356985486
0.9999998356985486
0.9999998356985486
0.9999998356985486
0.9999998356985486
0.9999998356985486
0.9999998356985486
0.9999998356985486
0.9999998356985486
0.9999998356985486
0.9999998356985486
0.9999998356985486
0.9999998356985486
0.9999998356985486
0.9999998356985486
0.9999998356985486
0.9999998356985486
0.9999998356985486
0.9999998356985486
0.9999998356985486
0.9999998356985486
0.9999998356985486
0.9999998356985486
0.9999998356985486
0.9999998356985486
0.9999998356985486
0.9999998356985486
0.9999998356985486
0.9999998356985486
0.9999998356985486
0.9999998356985486
0.9999998356985486
0.9999998356985486
0.9999998356985486
0.9999998356985486
0.9999998356985486
0.9999998356985486
0.9999998356985486
0.9999998356985486
0.9999998356985486
0.9999998356985486
0.9999998356985486
0.9999998356985486
0.9999998356985486
0.9999998356985486
0.9999998356985486
0.9999998356985486
0.9999998356985486
0.9999998356985486
0.9999998356985486
0.9999998356985486
0.9999998356985486
0.9999998356985486
0.9999998356985486
0.9999998356985486
0.9999998356985486
0.9999998356985486
0.9999998356985486
0.9999998356985486
0.9999998356985486
0.9999998356985486
0.9999998356985486
0.9999998356985486
0.9999998356985486
0.9999998356985486
0.9999998356985486
0.9999998356985486
0.9999998356985486
0.9999998356985486
0.9999998356985486
0.9999998356985486
0.9999998356985486
0.9999998356985486
0.9999998356985486
0.9999998356985486
0.9999998356985486
0.9999998356985486
0.9999998356985486
0.9999998356985486
0.9999998356985486
0.9999998356985486
0.9999998356985486
0.9999998356985486
0.9999998356985486
0.9999998356985486
0.9999998356985486
0.9999998356985486
0.9999998356985486
0.9999998356985486
0.9999998356985486
0.9999998356985486
0.9999998356985486
0.9999998356985486
0.9999998356985486
0.9999998356985486
0.9999998356985486
0.9999998356985486
0.9999998356985486
0.9999998356985486
0.9999998356985486
0.9999998356985486
0.9999998356985486
0.9999998356985486
0.9999998356985486
0.9999998356985486
0.9999998356985486
0.9999998356985486
0.9999998356985486
0.9999998356985486
0.9999998356985486
0.9999998356985486
0.9999998356985486
0.9999998356985486
0.9999998356985486
0.9999998356985486
0.9999998356985486
0.9999998356985486
0.9999998356985486
0.9999998356985486
0.9999998356985486
0.9999998356985486
0.9999998356985486
0.9999998356985486
0.9999998356985486
0.9999998356985486
0.9999998356985486
0.9999998356985486
0.9999998356985486
0.9999998356985486
0.9999998356985486
0.9999998356985486
0.9999998356985486
0.9999998356985486
0.9999998356985486
0.9999998356985486
0.9999998356985486
0.9999998356985486
0.9999998356985486
0.9999998356985486
0.9999998356985486
0.9999998356985486
0.9999998356985486
0.9999998356985486
0.9999998356985486
0.9999998356985486
0.9999998356985486
0.9999998356985486
0.9999998356985486
0.9999998356985486
0.9999998356985486
0.9999998356985486
0.9999998356985486
0.9999998356985486
0.9999998356985486
0.9999998356985486
0.9999998356985486
0.9999998356985486
0.9999998356985486
0.9999998356985486
0.9999998356985486
0.9999998356985486
0.9999998356985486
0.9999998356985486
0.9999998356985486
0.9999998356985486
0.9999998356985486
0.9999998356985486
0.9999998356985486
0.9999998356985486
0.9999998356985486
0.9999998356985486
0.9999998356985486
0.9999998356985486
0.9999998356985486
0.9999998356985486
0.9999998356985486
0.9999998356985486
0.9999998356985486
0.9999998356985486
0.9999998356985486
0.9999998356985486
0.9999998356985486
0.9999998356985486
0.9999998356985486
0.9999998356985486
0.9999998356985486
0.9999998356985486
0.9999998356985486
0.9999998356985486
0.9999998356985486
0.9999998356985486
0.9999998356985486
0.9999998356985486
0.9999998356985486
0.9999998356985486
0.9999998356985486
0.9999998356985486
0.9999998356985486
0.9999998356985486
0.9999998356985486
0.9999998356985486
0.9999998356985486
0.9999998356985486
0.9999998356985486
0.9999998356985486
0.9999998356985486
0.9999998356985486
0.9999998356985486
0.9999998356985486
0.9999998356985486
0.9999998356985486
0.9999998356985486
0.9999998356985486
0.9999998356985486
0.9999998356985486
0.9999998356985486
0.9999998356985486
0.9999998356985486
0.9999998356985486
0.9999998356985486
0.9999998356985486
0.9999998356985486
0.9999998356985486
0.9999998356985486
0.9999998356985486
0.9999998356985486
0.9999998356985486
0.9999998356985486
0.9999998356985486
0.9999998356985486
0.9999998356985486
0.9999998356985486
0.9999998356985486
0.9999998356985486
0.9999998356985486
0.9999998356985486
0.9999998356985486
0.9999998356985486
0.9999998356985486
0.9999998356985486
0.9999998356985486
0.9999998356985486
0.9999998356985486
0.9999998356985486
0.9999998356985486
0.9999998356985486
0.9999998356985486
0.9999998356985486
0.9999998356985486
0.9999998356985486
0.9999998356985486
0.9999998356985486
0.9999998356985486
0.9999998356985486
0.9999998356985486
0.9999998356985486
0.9999998356985486
0.9999998356985486
0.9999998356985486
0.9999998356985486
0.9999998356985486
0.9999998356985486
0.9999998356985486
0.9999998356985486
0.9999998356985486
0.9999998356985486
0.9999998356985486
0.9999998356985486
0.9999998356985486
0.9999998356985486
0.9999998356985486
0.9999998356985486
0.9999998356985486
0.9999998356985486
0.9999998356985486
0.9999998356985486
0.9999998356985486
0.9999998356985486
0.9999998356985486
0.9999998356985486
0.9999998356985486
0.9999998356985486
0.9999998356985486
0.9999998356985486
0.9999998356985486
0.9999998356985486
0.9999998356985486
0.9999998356985486
0.9999998356985486
0.9999998356985486
0.9999998356985486
0.9999998356985486
0.9999998356985486
0.9999998356985486
0.9999998356985486
0.9999998356985486
0.9999998356985486
0.9999998356985486
0.9999998356985486
0.9999998356985486
0.9999998356985486
0.9999998356985486
0.9999998356985486
0.9999998356985486
0.9999998356985486
0.9999998356985486
0.9999998356985486
0.9999998356985486
0.9999998356985486
0.9999998356985486
0.9999998356985486
0.9999998356985486
0.9999998356985486
0.9999998356985486
0.9999998356985486
0.9999998356985486
0.9999998356985486
0.9999998356985486
0.9999998356985486
0.9999998356985486
0.9999998356985486
0.9999998356985486
0.9999998356985486
0.9999998356985486
0.9999998356985486
0.9999998356985486
0.9999998356985486
0.9999998356985486
0.9999998356985486
0.9999998356985486
0.9999998356985486
0.9999998356985486
0.9999998356985486
0.9999998356985486
0.9999998356985486
0.9999998356985486
0.9999998356985486
0.9999998356985486
0.9999998356985486
0.9999998356985486
0.9999998356985486
0.9999998356985486
0.9999998356985486
0.9999998356985486
0.9999998356985486
0.9999998356985486
0.9999998356985486
0.9999998356985486
0.9999998356985486
0.9999998356985486
0.9999998356985486
0.9999998356985486
0.9999998356985486
0.9999998356985486
0.9999998356985486
0.9999998356985486
0.9999998356985486
0.9999998356985486
0.9999998356985486
0.9999998356985486
0.9999998356985486
0.9999998356985486
0.9999998356985486
0.9999998356985486
0.9999998356985486
0.9999998356985486
0.9999998356985486
0.9999998356985486
0.9999998356985486
0.9999998356985486
0.9999998356985486
0.9999998356985486
0.9999998356985486
0.9999998356985486
0.9999998356985486
0.9999998356985486
0.9999998356985486
0.9999998356985486
0.9999998356985486
0.9999998356985486
0.9999998356985486
0.9999998356985486
0.9999998356985486
0.9999998356985486
0.9999998356985486
0.9999998356985486
0.9999998356985486
0.9999998356985486
0.9999998356985486
0.9999998356985486
0.9999998356985486
0.9999998356985486
0.9999998356985486
0.9999998356985486
0.9999998356985486
0.9999998356985486
0.9999998356985486
0.9999998356985486
0.9999998356985486
0.9999998356985486
0.9999998356985486
0.9999998356985486
0.9999998356985486
0.9999998356985486
0.9999998356985486
0.9999998356985486
0.9999998356985486
0.9999998356985486
0.9999998356985486
0.9999998356985486
0.9999998356985486
0.9999998356985486
0.9999998356985486
0.9999998356985486
0.9999998356985486
0.9999998356985486
0.9999998356985486
0.9999998356985486
0.9999998356985486
0.9999998356985486
0.9999998356985486
0.9999998356985486
0.9999998356985486
0.9999998356985486
0.9999998356985486
0.9999998356985486
0.9999998356985486
0.9999998356985486
0.9999998356985486
0.9999998356985486
0.9999998356985486
0.9999998356985486
0.9999998356985486
0.9999998356985486
0.9999998356985486
0.9999998356985486
0.9999998356985486
0.9999998356985486
0.9999998356985486
0.9999998356985486
0.9999998356985486
0.9999998356985486
0.9999998356985486
0.9999998356985486
0.9999998356985486
0.9999998356985486
0.9999998356985486
0.9999998356985486
0.9999998356985486
0.9999998356985486
0.9999998356985486
0.9999998356985486
0.9999998356985486
0.9999998356985486
0.9999998356985486
0.9999998356985486
0.9999998356985486
0.9999998356985486
0.9999998356985486
0.9999998356985486
0.9999998356985486
0.9999998356985486
0.9999998356985486
0.9999998356985486
0.9999998356985486
0.9999998356985486
0.9999998356985486
0.9999998356985486
0.9999998356985486
0.9999998356985486
0.9999998356985486
0.9999998356985486
0.9999998356985486
0.9999998356985486
0.9999998356985486
0.9999998356985486
0.9999998356985486
0.9999998356985486
0.9999998356985486
0.9999998356985486
0.9999998356985486
0.9999998356985486
0.9999998356985486
0.9999998356985486
0.9999998356985486
0.9999998356985486
0.9999998356985486
0.9999998356985486
0.9999998356985486
0.9999998356985486
0.9999998356985486
0.9999998356985486
0.9999998356985486
0.9999998356985486
0.9999998356985486
0.9999998356985486
0.9999998356985486
0.9999998356985486
0.9999998356985486
0.9999998356985486
0.9999998356985486
0.9999998356985486
0.9999998356985486
0.9999998356985486
0.9999998356985486
0.9999998356985486
0.9999998356985486
0.9999998356985486
0.9999998356985486
0.9999998356985486
0.9999998356985486
0.9999998356985486
0.9999998356985486
0.9999998356985486
0.9999998356985486
0.9999998356985486
0.9999998356985486
0.9999998356985486
0.9999998356985486
0.9999998356985486
0.9999998356985486
0.9999998356985486
0.9999998356985486
0.9999998356985486
0.9999998356985486
0.9999998356985486
0.9999998356985486
0.9999998356985486
0.9999998356985486
0.9999998356985486
0.9999998356985486
0.9999998356985486
0.9999998356985486
0.9999998356985486
0.9999998356985486
0.9999998356985486
0.9999998356985486
0.9999998356985486
0.9999998356985486
0.9999998356985486
0.9999998356985486
0.9999998356985486
0.9999998356985486
0.9999998356985486
0.9999998356985486
0.9999998356985486
0.9999998356985486
0.9999998356985486
0.9999998356985486
0.9999998356985486
0.9999998356985486
0.9999998356985486
0.9999998356985486
0.9999998356985486
0.9999998356985486
0.9999998356985486
0.9999998356985486
0.9999998356985486
0.9999998356985486
0.9999998356985486
0.9999998356985486
0.9999998356985486
0.9999998356985486
0.9999998356985486
0.9999998356985486
0.9999998356985486
0.9999998356985486
0.9999998356985486
0.9999998356985486
0.9999998356985486
0.9999998356985486
0.9999998356985486
0.9999998356985486
0.9999998356985486
0.9999998356985486
0.9999998356985486
0.9999998356985486
0.9999998356985486
0.9999998356985486
0.9999998356985486
0.9999998356985486
0.9999998356985486
0.9999998356985486
0.9999998356985486
0.9999998356985486
0.9999998356985486
0.9999998356985486
0.9999998356985486
0.9999998356985486
0.999782521403485
0.9990540165175223
0.9976833448558187
0.9955084894064833
0.9922407019507347
0.9875295601872208
0.9810641179943939
0.9724617905241424
0.9612359957490695
0.946703055169807
0.9280059447059632
0.9042352477862793
0.8742555898062648
0.8366746936981098
0.7898241167543859
0.7317965477712123
0.6603880953235914
0.5730279072070077
0.46680042558223805
0.33849894258106916
0.18442912836750688
0.0
0.0
0.0
0.0
0.0
0.0
0.0
0.0
0.0
0.0
0.0
0.0
0.0
0.0
0.0
0.0
0.0
0.0
0.0
0.0
0.0
0.0
0.0
0.0
0.0
0.0
0.0
0.0
0.0
0.0
0.0
0.0
0.0
0.0
0.0
0.0
0.0
0.0
0.0
0.0
0.0
0.0
0.0
0.0
0.0
0.0
0.0
0.0
0.0
0.0
0.0
0.0
0.0
0.0
0.0
0.0
0.0
0.0
0.0
0.0
0.0
0.0
0.0
0.0
0.0
0.0
0.0
0.0
0.0
0.0
0.0
0.0
0.0
0.0
0.0
0.0
0.0
0.0
0.0
0.0
0.0
0.0
0.0
0.0
0.0
0.0
0.0
0.0
0.0
0.0
0.1531953987724851
0.289962746646114
0.41011013312424693
0.5142679793504042
0.6035501026255715
0.6793218762915983
0.7430448468735734
0.7961759061165226
0.840104676189828
0.876117385654621
0.9053789478162904
0.9289270073527179
0.9476737950510938
0.9624127278359835
0.9738277310343939
0.9825038064043741
0.9889379518290073
0.9935498317529382
0.9966918132470496
0.998658187056422
0.9996934795392647
0.9998234044653986
0.9999353216609496
0.9999444546998932
0.9999380969981942
0.999966800001355
0.999954234542697
0.999953957791079
0.9999445999361293
0.9999518535283626
0.9999339716610138
0.9999443078306471
0.9998426129281689
0.9999154490126463
0.9998915418093368
0.9997140187966522
0.9998160118427875
0.9998954185261058
0.9997984001624666
0.9998807269638716
0.9997389596678005
0.9998885070527951
0.9998637933894412
0.9997933874321666
0.9998659044706316
0.9997793798487833
0.9998579234515048
0.9998138608502827
0.9997974106818779
0.9999061837146872
0.9998015679514087
0.9997847780621102
0.99975277536566
0.9997857340445288
0.999828967536531
0.9997958534961129
0.999970619258822
0.9998466743800841
0.9999748310518877
0.9999798880850586
0.9999677654958355
0.9999740442963416
0.9999755900864936
0.9999778991574839
0.9999493328495201
0.9999549836579742
0.9999519804730252
0.9999516094237341
0.9999739875544658
0.9999497358506185
0.9999719113808904
0.9999730362300037
0.9999502665437202
0.9999493427205771
0.9999649365715866
0.9999368024044935
0.9998427023754503
0.9998071954798916
0.7624455917422099
0.7189349925066828
0.9998361204547215
0.999786801116858
0.9999888426125121
0.9998972467225584
0.9165187785634146
0.8945493711410949
0.9999969626471428
1.0000007793996477
1.00000069781159
0.9999970215753219
0.999999505705225
0.9999981251509413
0.9999629626219118
0.9999635430881946
0.9999517942465013
0.9999707968031861
0.9999624414986948
0.9999589332026526
1.0000007634597616
0.9999980117179581
0.9999949755815623
0.9999517872345992
0.9999599603040469
0.9999603323554263
0.9997980583293263
0.9998015681738064
0.9668932228378796
0.9553480823289694
0.17217218602244885
0.15534738816104038
0.18455790925873478
0.1606500797683135
0.1713071599678718
0.13226427416478398
0.17256012617587066
0.1580466498156963
0.1916216569472784
0.15407162325062373
0.15645727107293264
0.18755070608851335
0.1745007675552421
0.12648048534440312
0.1843910193501585
0.16005614444873079
0.1455488631723961
0.1624135586288361
0.15247366398979476
0.13395294069287048
0.16936156103189443
0.16226551104499862
0.16398328410386498
0.18062712399304806
0.16694861685083764
0.9999523250881651
0.9999621930118332
0.9999468174831097
0.9999459236974514
0.9999483700149703
0.99996136204854
0.9999476427131643
0.9999649390584407
0.9999591651031918
0.9999393428062394
0.9999553510529813
0.9999501245391187
0.9999230301165127
0.9999617753245887
0.9999736629168434
0.9999496640663108
0.999956948188814
0.999956490086627
1.0000116185613153
0.9999452992859702
0.9998138318740707
0.9998125465570264
0.9999523551793469
0.9999420632316511
0.9997861454769749
0.9998659317620263
0.9998173672697566
0.9997871934875735
0.9997287290641431
0.9997825590705735
0.9998795773025877
0.9997936848902936
0.9999002471593081
0.9998293055017475
0.9997998847312113
0.9999036681483469
0.9999113108552078
0.9997929567746192
0.9997520250467745
0.999851185755818