# vtk DataFile Version 1.0
2D Simulation C++
ASCII
DATASET UNSTRUCTURED_GRID
FIELD FieldData 5
TIME 1 3 double
0.0025 1.0 58.67249999998288
ITERATION 1 1 int
23470
NODES 1 3 int
45191 11579 22034
PARAMETERS 1 5 float
54.5 1000 1.0 10 1.0
PRPOPERTIES 1 8 float
1.0 1.0 1.0 1.0 1.0 1.0 1.0 1.0

POINTS 11579 double
0.0 1.0 0.0
0.1024 1.122 0.0
0.1365 1.1561 0.0
0.1706 1.1902 0.0
0.273 1.1902 0.0
0.3072 1.2244 0.0
0.3413 1.2926 0.0
0.3754 1.2926 0.0
0.4096 1.3267 0.0
0.5802 1.3267 0.0
0.6143 1.345 0.0
0.6485 1.3267 0.0
0.9215 1.3267 0.0
0.9556 1.3609 0.0
1.1263 1.3609 0.0
1.1604 1.2244 0.0
1.3652 1.2244 0.0
1.3993 1.1902 0.0
1.4334 1.1561 0.0
1.4676 1.122 0.0
1.843 1.122 0.0
1.8502 1.1291 0.0
2.0622 0.9854 0.0
2.116 0.9854 0.0
2.1502 0.9513 0.0
2.1843 0.9513 0.0
2.2184 0.8831 0.0
2.3549 0.8831 0.0
2.3891 0.8489 0.0
2.4232 0.8489 0.0
2.4573 0.8148 0.0
2.4915 0.8148 0.0
2.5256 0.7807000000000001 0.0
2.5355 0.7807000000000001 0.0
2.8025 0.6441 0.0
3.0375 0.6441 0.0
3.0717 0.6783 0.0
3.1058 0.6783 0.0
3.1399 0.6441 0.0
3.1741 0.6441 0.0
3.1851 0.6331 0.0
3.4833 0.61 0.0
3.7543 0.61 0.0
3.7884 0.6441 0.0
3.8502 0.6441 0.0
4.1475 0.6783 0.0
4.198 0.6783 0.0
4.2321 0.7124 0.0
4.5188 0.7124 0.0
4.8068 0.6838 0.0
4.8123 0.6783 0.0
5.0512 0.6783 0.0
5.0853 0.7124 0.0
5.1195 0.7465 0.0
5.1833 0.7465 0.0
5.4833 0.7465 0.0
5.7338 0.7465 0.0
5.7679 0.7124 0.0
5.802 0.61 0.0
5.85 0.61 0.0
6.1245 0.6936 0.0
6.1433 0.7124 0.0
6.2799 0.7124 0.0
6.314 0.7465 0.0
6.3481 0.7465 0.0
6.3823 0.7807000000000001 0.0
6.4164 0.7689 0.0
6.4505 0.7124 0.0
6.4846 0.6783 0.0
6.5188 0.6441 0.0
6.5203 0.6427 0.0
6.8167 0.61 0.0
7.1873 0.61 0.0
7.4572 0.7288 0.0
7.4744 0.8148 0.0
7.5085 0.8148 0.0
7.5427 0.8489 0.0
7.5768 0.8831 0.0
7.6109 0.8831 0.0
7.6451 0.9854 0.0
7.7816 0.9854 0.0
7.8157 1.0196 0.0
7.8498 1.0878 0.0
7.8532 1.0912 0.0
8.1407 1.1739 0.0
8.157 1.1902 0.0
8.3276 1.1902 0.0
8.3618 1.2244 0.0
8.7031 1.2244 0.0
8.7372 1.2585 0.0
8.7713 1.2585 0.0
8.8055 1.2926 0.0
9.3174 1.2926 0.0
9.8515 1.0 0.0
10.0 1.0 0.0
1.915852 0.997788 0.0
2.598361 0.5743240000000001 0.0
3.321715 0.460453 0.0
4.017139 0.502 0.0
4.651878 0.588133 0.0
5.3333 0.5965 0.0
6.043701 0.466526 0.0
6.650251 0.460901 0.0
7.393719 0.506799 0.0
8.041462 0.977863 0.0
0.0 0.0 0.0
10.0 0.0 0.0
0.00853333333332643 1.010166666666658 0.0
0.01706666666665164 1.020333333333315 0.0
0.02559999999997514 1.03049999999997 0.0
0.03413333333329825 1.040666666666625 0.0
0.04266666666662176 1.05083333333328 0.0
0.05119999999994564 1.060999999999935 0.0
0.05973333333328781 1.071166666666612 0.0
0.06826666666663053 1.08133333333329 0.0
0.07679999999997321 1.091499999999968 0.0
0.08533333333331586 1.101666666666646 0.0
0.0938666666666585 1.111833333333323 0.0
0.1109249999999804 1.13052499999998 0.0
0.1194499999999594 1.139049999999959 0.0
0.1279749999999573 1.147574999999957 0.0
0.145024999999981 1.164624999999981 0.0
0.1535499999999485 1.173149999999948 0.0
0.162074999999954 1.181674999999954 0.0
0.1833999999999607 1.1902 0.0
0.1961999999999268 1.1902 0.0
0.2089999999998929 1.1902 0.0
0.2217999999998589 1.1902 0.0
0.2345999999998955 1.1902 0.0
0.2473999999999213 1.1902 0.0
0.260199999999958 1.1902 0.0
0.2815499999999838 1.198749999999984 0.0
0.2900999999999187 1.207299999999919 0.0
0.2986499999999783 1.215849999999978 0.0
0.3128833333333413 1.235766666666682 0.0
0.3185666666666522 1.247133333333304 0.0
0.3242499999999545 1.258499999999909 0.0
0.3299333333333347 1.26986666666667 0.0
0.3356166666666587 1.281233333333317 0.0
0.3526666666666233 1.2926 0.0
0.3640333333333117 1.2926 0.0
0.3839499999999919 1.301124999999992 0.0
0.3924999999999295 1.30964999999993 0.0
0.4010499999999864 1.318174999999986 0.0
0.4227230769230995 1.3267 0.0
0.4358461538460404 1.3267 0.0
0.4489692307691691 1.3267 0.0
0.4620923076921484 1.3267 0.0
0.475215384615166 1.3267 0.0
0.4883384615382613 1.3267 0.0
0.5014615384612932 1.3267 0.0
0.5145846153844167 1.3267 0.0
0.527707692307507 1.3267 0.0
0.5408307692306691 1.3267 0.0
0.5539538461537643 1.3267 0.0
0.5670769230768931 1.3267 0.0
0.5915666666665769 1.332799999999952 0.0
0.6029333333333221 1.338899999999994 0.0
0.6256999999999269 1.338900000000039 0.0
0.6370999999999718 1.332800000000015 0.0
0.6621499999999675 1.3267 0.0
0.6757999999999567 1.3267 0.0
0.6894499999999024 1.3267 0.0
0.7030999999998916 1.3267 0.0
0.7167499999998375 1.3267 0.0
0.7303999999997399 1.3267 0.0
0.7440499999997248 1.3267 0.0
0.757699999999701 1.3267 0.0
0.771349999999664 1.3267 0.0
0.7849999999996099 1.3267 0.0
0.7986499999996424 1.3267 0.0
0.8122999999996751 1.3267 0.0
0.825949999999712 1.3267 0.0
0.8395999999997835 1.3267 0.0
0.8532499999997945 1.3267 0.0
0.8668999999998009 1.3267 0.0
0.8805499999998551 1.3267 0.0
0.8941999999998744 1.3267 0.0
0.9078499999999459 1.3267 0.0
0.9300249999999946 1.335249999999994 0.0
0.9385499999999459 1.343799999999946 0.0
0.9470749999999405 1.35234999999994 0.0
0.9687307692307142 1.3609 0.0
0.981861538461435 1.3609 0.0
0.9949923076921425 1.3609 0.0
1.00812307692287 1.3609 0.0
1.021253846153566 1.3609 0.0
1.034384615384265 1.3609 0.0
1.047515384615041 1.3609 0.0
1.060646153845913 1.3609 0.0
1.073776923076723 1.3609 0.0
1.086907692307479 1.3609 0.0
1.100038461538405 1.3609 0.0
1.113169230769137 1.3609 0.0
1.12939999999998 1.348490909090989 0.0
1.132499999999978 1.336081818181905 0.0
1.135599999999965 1.323672727272868 0.0
1.138699999999966 1.311263636363772 0.0
1.141799999999964 1.298854545454692 0.0
1.14489999999995 1.286445454545655 0.0
1.147999999999962 1.274036363636516 0.0
1.151099999999969 1.261627272727397 0.0
1.154199999999976 1.249218181818278 0.0
1.1573 1.236809090909093 0.0
1.174053333333356 1.2244 0.0
1.187706666666672 1.2244 0.0
1.201359999999922 1.2244 0.0
1.215013333333171 1.2244 0.0
1.228666666666609 1.2244 0.0
1.242319999999878 1.2244 0.0
1.255973333333137 1.2244 0.0
1.269626666666398 1.2244 0.0
1.283279999999774 1.2244 0.0
1.296933333333218 1.2244 0.0
1.310586666666568 1.2244 0.0
1.324239999999905 1.2244 0.0
1.337893333333241 1.2244 0.0
1.351546666666644 1.2244 0.0
1.373725 1.21585 0.0
1.382249999999935 1.207300000000065 0.0
1.390774999999957 1.198750000000044 0.0
1.407824999999989 1.181675000000011 0.0
1.416349999999935 1.173150000000065 0.0
1.424874999999967 1.164625000000032 0.0
1.441949999999989 1.147575000000011 0.0
1.450499999999957 1.139050000000043 0.0
1.459049999999924 1.130525000000076 0.0
1.481503703703601 1.122 0.0
1.495407407407353 1.122 0.0
1.50931111111102 1.122 0.0
1.523214814814621 1.122 0.0
1.537118518518252 1.122 0.0
1.551022222222039 1.122 0.0
1.56492592592564 1.122 0.0
1.578829629629324 1.122 0.0
1.592733333333059 1.122 0.0
1.606637037036746 1.122 0.0
1.620540740740347 1.122 0.0
1.634444444444117 1.122 0.0
1.648348148147766 1.122 0.0
1.662251851851383 1.122 0.0
1.676155555555189 1.122 0.0
1.690059259258959 1.122 0.0
1.703962962962646 1.122 0.0
1.717866666666334 1.122 0.0
1.731770370370068 1.122 0.0
1.745674074073788 1.122 0.0
1.759577777777527 1.122 0.0
1.773481481481314 1.122 0.0
1.787385185185033 1.122 0.0
1.801288888888754 1.122 0.0
1.815192592592474 1.122 0.0
1.829096296296226 1.122 0.0
2.07565 0.9854 0.0
2.089099999999913 0.9854 0.0
2.10255 0.9854 0.0
2.12454999999956 0.9768750000004391 0.0
2.133099999999924 0.9683500000000759 0.0
2.141650000000419 0.9598249999995826 0.0
2.161566666666753 0.9513 0.0
2.172933333333246 0.9513 0.0
2.189983333333333 0.9399333333333333 0.0
2.195666666666649 0.9285666666667013 0.0
2.20134999999993 0.9172000000001388 0.0
2.207033333333264 0.905833333333472 0.0
2.212716666666615 0.8944666666667707 0.0
2.232050000000017 0.8831 0.0
2.245699999999948 0.8831 0.0
2.259349999999931 0.8831 0.0
2.272999999999965 0.8831 0.0
2.28664999999974 0.8831 0.0
2.300299999999861 0.8831 0.0
2.313949999999896 0.8831 0.0
2.327599999999879 0.8831 0.0
2.341249999999983 0.8831 0.0
2.363449999999561 0.8745500000004391 0.0
2.371999999999924 0.8660000000000758 0.0
2.380550000000417 0.8574499999995826 0.0
2.400466666666754 0.8489 0.0
2.411833333333246 0.8489 0.0
2.431724999999995 0.8403750000000054 0.0
2.440249999999924 0.8318500000000759 0.0
2.448774999999897 0.823325000000103 0.0
2.4687 0.8148 0.0
2.4801 0.8148 0.0
2.500024999999935 0.806275000000065 0.0
2.508549999999924 0.7977500000000759 0.0
2.517074999999913 0.7892250000000868 0.0
2.816323529411826 0.6441 0.0
2.83014705882356 0.6441 0.0
2.843970588235116 0.6441 0.0
2.857794117646947 0.6441 0.0
2.871617647058783 0.6441 0.0
2.885441176470435 0.6441 0.0
2.89926470588194 0.6441 0.0
2.913088235293633 0.6441 0.0
2.9269117647055 0.6441 0.0
2.940735294117367 0.6441 0.0
2.954558823529045 0.6441 0.0
2.96838235294087 0.6441 0.0
2.982205882352706 0.6441 0.0
2.996029411764574 0.6441 0.0
3.009852941176267 0.6441 0.0
3.023676470588174 0.6441 0.0
3.046049999999539 0.6526499999995392 0.0
3.054599999999924 0.6611999999999242 0.0
3.063150000000417 0.6697500000004174 0.0
3.083066666666753 0.6783 0.0
3.094433333333246 0.6783 0.0
3.114324999999973 0.6697500000000272 0.0
3.122849999999924 0.661200000000076 0.0
3.131374999999897 0.6526500000001031 0.0
3.151300000000549 0.6441 0.0
3.162699999999624 0.6441 0.0
3.1796 0.6386000000000001 0.0
3.49684999999987 0.61 0.0
3.510399999999809 0.61 0.0
3.523949999999974 0.61 0.0
3.537499999999826 0.61 0.0
3.551049999999783 0.61 0.0
3.564599999999601 0.61 0.0
3.578149999999592 0.61 0.0
3.591699999999757 0.61 0.0
3.605249999999748 0.61 0.0
3.618799999999653 0.61 0.0
3.632349999999557 0.61 0.0
3.645899999999722 0.61 0.0
3.659449999999887 0.61 0.0
3.673000000000052 0.61 0.0
3.68654999999987 0.61 0.0
3.700099999999826 0.61 0.0
3.713649999999852 0.61 0.0
3.727200000000017 0.61 0.0
3.740750000000009 0.61 0.0
3.762825 0.618525 0.0
3.771349999999935 0.6270499999999349 0.0
3.779874999999913 0.6355749999999133 0.0
3.800759999999775 0.6441 0.0
3.813119999999965 0.6441 0.0
3.825479999999861 0.6441 0.0
3.837840000000052 0.6441 0.0
4.160125000000087 0.6783 0.0
4.17275 0.6783 0.0
4.185374999999913 0.6783 0.0
4.206525000000174 0.6868250000001734 0.0
[...]
POINT_DATA 11579
SCALARS psi double
LOOKUP_TABLE default
1.00000037990361
1.00000037990361
1.00000037990361
1.00000037990361
1.00000037990361
1.00000037990361
1.00000037990361
1.00000037990361
1.00000037990361
1.00000037990361
1.00000037990361
1.00000037990361
1.00000037990361
1.00000037990361
1.00000037990361
1.00000037990361
1.00000037990361
1.00000037990361
1.00000037990361
1.00000037990361
1.00000037990361
1.00000037990361
1.00000037990361
1.00000037990361
1.00000037990361
1.00000037990361
1.00000037990361
1.00000037990361
1.00000037990361
1.00000037990361
1.00000037990361
1.00000037990361
1.00000037990361
1.00000037990361
1.00000037990361
1.00000037990361
1.00000037990361
1.00000037990361
1.00000037990361
1.00000037990361
1.00000037990361
1.00000037990361
1.00000037990361
1.00000037990361
1.00000037990361
1.00000037990361
1.00000037990361
1.00000037990361
1.00000037990361
1.00000037990361
1.00000037990361
1.00000037990361
1.00000037990361
1.00000037990361
1.00000037990361
1.00000037990361
1.00000037990361
1.00000037990361
1.00000037990361
1.00000037990361
1.00000037990361
1.00000037990361
1.00000037990361
1.00000037990361
1.00000037990361
1.00000037990361
1.00000037990361
1.00000037990361
1.00000037990361
1.00000037990361
1.00000037990361
1.00000037990361
1.00000037990361
1.00000037990361
1.00000037990361
1.00000037990361
1.00000037990361
1.00000037990361
1.00000037990361
1.00000037990361
1.00000037990361
1.00000037990361
1.00000037990361
1.00000037990361
1.00000037990361
1.00000037990361
1.00000037990361
1.00000037990361
1.00000037990361
1.00000037990361
1.00000037990361
1.00000037990361
1.00000037990361
1.00000037990361
1.00000037990361
1.00000037990361
1.00000037990361
1.00000037990361
1.00000037990361
1.00000037990361
1.00000037990361
1.00000037990361
1.00000037990361
1.00000037990361
1.00000037990361
0.0
0.0
1.00000037990361
1.00000037990361
1.00000037990361
1.00000037990361
1.00000037990361
1.00000037990361
1.00000037990361
1.00000037990361
1.00000037990361
1.00000037990361
1.00000037990361
1.00000037990361
1.00000037990361
1.00000037990361
1.00000037990361
1.00000037990361
1.00000037990361
1.00000037990361
1.00000037990361
1.00000037990361
1.00000037990361
1.00000037990361
1.00000037990361
1.00000037990361
1.00000037990361
1.00000037990361
1.00000037990361
1.00000037990361
1.00000037990361
1.00000037990361
1.00000037990361
1.00000037990361
1.00000037990361
1.00000037990361
1.00000037990361
1.00000037990361
1.00000037990361
1.00000037990361
1.00000037990361
1.00000037990361
1.00000037990361
1.00000037990361
1.00000037990361
1.00000037990361
1.00000037990361
1.00000037990361
1.00000037990361
1.00000037990361
1.00000037990361
1.00000037990361
1.00000037990361
1.00000037990361
1.00000037990361
1.00000037990361
1.00000037990361
1.00000037990361
1.00000037990361
1.00000037990361
1.00000037990361
1.00000037990361
1.00000037990361
1.00000037990361
1.00000037990361
1.00000037990361
1.00000037990361
1.00000037990361
1.00000037990361
1.00000037990361
1.00000037990361
1.00000037990361
1.00000037990361
1.00000037990361
1.00000037990361
1.00000037990361
1.00000037990361
1.00000037990361
1.00000037990361
1.00000037990361
1.00000037990361
1.00000037990361
1.00000037990361
1.00000037990361
1.00000037990361
1.00000037990361
1.00000037990361
1.00000037990361
1.00000037990361
1.00000037990361
1.00000037990361
1.00000037990361
1.00000037990361
1.00000037990361
1.00000037990361
1.00000037990361
1.00000037990361
1.00000037990361
1.00000037990361
1.00000037990361
1.00000037990361
1.00000037990361
1.00000037990361
1.00000037990361
1.00000037990361
1.00000037990361
1.00000037990361
1.00000037990361
1.00000037990361
1.00000037990361
1.00000037990361
1.00000037990361
1.00000037990361
1.00000037990361
1.00000037990361
1.00000037990361
1.00000037990361
1.00000037990361
1.00000037990361
1.00000037990361
1.00000037990361
1.00000037990361
1.00000037990361
1.00000037990361
1.00000037990361
1.00000037990361
1.00000037990361
1.00000037990361
1.00000037990361
1.00000037990361
1.00000037990361
1.00000037990361
1.00000037990361
1.00000037990361
1.00000037990361
1.00000037990361
1.00000037990361
1.00000037990361
1.00000037990361
1.00000037990361
1.00000037990361
1.00000037990361
1.00000037990361
1.00000037990361
1.00000037990361
1.00000037990361
1.00000037990361
1.00000037990361
1.00000037990361
1.00000037990361
1.00000037990361
1.00000037990361
1.00000037990361
1.00000037990361
1.00000037990361
1.00000037990361
1.00000037990361
1.00000037990361
1.00000037990361
1.00000037990361
1.00000037990361
1.00000037990361
1.00000037990361
1.00000037990361
1.00000037990361
1.00000037990361
1.00000037990361
1.00000037990361
1.00000037990361
1.00000037990361
1.00000037990361
1.00000037990361
1.00000037990361
1.00000037990361
1.00000037990361
1.00000037990361
1.00000037990361
1.00000037990361
1.00000037990361
1.00000037990361
1.00000037990361
1.00000037990361
1.00000037990361
1.00000037990361
1.00000037990361
1.00000037990361
1.00000037990361
1.00000037990361
1.00000037990361
1.00000037990361
1.00000037990361
1.00000037990361
1.00000037990361
1.00000037990361
1.00000037990361
1.00000037990361
1.00000037990361
1.00000037990361
1.00000037990361
1.00000037990361
1.00000037990361
1.00000037990361
1.00000037990361
1.00000037990361
1.00000037990361
1.00000037990361
1.00000037990361
1.00000037990361
1.00000037990361
1.00000037990361
1.00000037990361
1.00000037990361
1.00000037990361
1.00000037990361
1.00000037990361
1.00000037990361
1.00000037990361
1.00000037990361
1.00000037990361
1.00000037990361
1.00000037990361
1.00000037990361
1.00000037990361
1.00000037990361
1.00000037990361
1.00000037990361
1.00000037990361
1.00000037990361
1.00000037990361
1.00000037990361
1.00000037990361
1.00000037990361
1.00000037990361
1.00000037990361
1.00000037990361
1.00000037990361
1.00000037990361
1.00000037990361
1.00000037990361
1.00000037990361
1.00000037990361
1.00000037990361
1.00000037990361
1.00000037990361
1.00000037990361
1.00000037990361
1.00000037990361
1.00000037990361
1.00000037990361
1.00000037990361
1.00000037990361
1.00000037990361
1.00000037990361
1.00000037990361
1.00000037990361
1.00000037990361
1.00000037990361
1.00000037990361
1.00000037990361
1.00000037990361
1.00000037990361
1.00000037990361
1.00000037990361
1.00000037990361
1.00000037990361
1.00000037990361
1.00000037990361
1.00000037990361
1.00000037990361
1.00000037990361
1.00000037990361
1.00000037990361
1.00000037990361
1.00000037990361
1.00000037990361
1.00000037990361
1.00000037990361
1.00000037990361
1.00000037990361
1.00000037990361
1.00000037990361
1.00000037990361
1.00000037990361
1.00000037990361
1.00000037990361
1.00000037990361
1.00000037990361
1.00000037990361
1.00000037990361
1.00000037990361
1.00000037990361
1.00000037990361
1.00000037990361
1.00000037990361
1.00000037990361
1.00000037990361
1.00000037990361
1.00000037990361
1.00000037990361
1.00000037990361
1.00000037990361
1.00000037990361
1.00000037990361
1.00000037990361
1.00000037990361
1.00000037990361
1.00000037990361
1.00000037990361
1.00000037990361
1.00000037990361
1.00000037990361
1.00000037990361
1.00000037990361
1.00000037990361
1.00000037990361
1.00000037990361
1.00000037990361
1.00000037990361
1.00000037990361
1.00000037990361
1.00000037990361
1.00000037990361
1.00000037990361
1.00000037990361
1.00000037990361
1.00000037990361
1.00000037990361
1.00000037990361
1.00000037990361
1.00000037990361
1.00000037990361
1.00000037990361
1.00000037990361
1.00000037990361
1.00000037990361
1.00000037990361
1.00000037990361
1.00000037990361
1.00000037990361
1.00000037990361
1.00000037990361
1.00000037990361
1.00000037990361
1.00000037990361
1.00000037990361
1.00000037990361
1.00000037990361
1.00000037990361
1.00000037990361
1.00000037990361
1.00000037990361
1.00000037990361
1.00000037990361
1.00000037990361
1.00000037990361
1.00000037990361
1.00000037990361
1.00000037990361
1.00000037990361
1.00000037990361
1.00000037990361
1.00000037990361
1.00000037990361
1.00000037990361
1.00000037990361
1.00000037990361
1.00000037990361
1.00000037990361
1.00000037990361
1.00000037990361
1.00000037990361
1.00000037990361
1.00000037990361
1.00000037990361
1.00000037990361
1.00000037990361
1.00000037990361
1.00000037990361
1.00000037990361
1.00000037990361
1.00000037990361
1.00000037990361
1.00000037990361
1.00000037990361
1.00000037990361
1.00000037990361
1.00000037990361
1.00000037990361
1.00000037990361
1.00000037990361
1.00000037990361
1.00000037990361
1.00000037990361
1.00000037990361
1.00000037990361
1.00000037990361
1.00000037990361
1.00000037990361
1.00000037990361
1.00000037990361
1.00000037990361
1.00000037990361
1.00000037990361
1.00000037990361
1.00000037990361
1.00000037990361
1.00000037990361
1.00000037990361
1.00000037990361
1.00000037990361
1.00000037990361
1.00000037990361
1.00000037990361
1.00000037990361
1.00000037990361
1.00000037990361
1.00000037990361
1.00000037990361
1.00000037990361
1.00000037990361
1.00000037990361
1.00000037990361
1.00000037990361
1.00000037990361
1.00000037990361
1.00000037990361
1.00000037990361
1.00000037990361
1.00000037990361
1.00000037990361
1.00000037990361
1.00000037990361
1.00000037990361
1.00000037990361
1.00000037990361
1.00000037990361
1.00000037990361
1.00000037990361
1.00000037990361
1.00000037990361
1.00000037990361
1.00000037990361
1.00000037990361
1.00000037990361
1.00000037990361
1.00000037990361
1.00000037990361
1.00000037990361
1.00000037990361
1.00000037990361
1.00000037990361
1.00000037990361
1.00000037990361
1.00000037990361
1.00000037990361
1.00000037990361
1.00000037990361
1.00000037990361
1.00000037990361
1.00000037990361
1.00000037990361
1.00000037990361
1.00000037990361
1.00000037990361
1.00000037990361
1.00000037990361
1.00000037990361
1.00000037990361
1.00000037990361
1.00000037990361
1.00000037990361
1.00000037990361
1.00000037990361
1.00000037990361
1.00000037990361
1.00000037990361
1.00000037990361
1.00000037990361
1.00000037990361
1.00000037990361
1.00000037990361
1.00000037990361
1.00000037990361
1.00000037990361
1.00000037990361
1.00000037990361
1.00000037990361
1.00000037990361
1.00000037990361
1.00000037990361
1.00000037990361
1.00000037990361
1.00000037990361
1.00000037990361
1.00000037990361
1.00000037990361
1.00000037990361
1.00000037990361
1.00000037990361
1.00000037990361
1.00000037990361
1.00000037990361
1.00000037990361
1.00000037990361
1.00000037990361
1.00000037990361
1.00000037990361
1.00000037990361
1.00000037990361
1.00000037990361
1.00000037990361
1.00000037990361
1.00000037990361
1.00000037990361
1.00000037990361
1.00000037990361
1.00000037990361
1.00000037990361
1.00000037990361
1.00000037990361
1.00000037990361
1.00000037990361
1.00000037990361
1.00000037990361
1.00000037990361
1.00000037990361
1.00000037990361
1.00000037990361
1.00000037990361
1.00000037990361
1.00000037990361
1.00000037990361
1.00000037990361
1.00000037990361
1.00000037990361
1.00000037990361
1.00000037990361
1.00000037990361
1.00000037990361
1.00000037990361
1.00000037990361
1.00000037990361
1.00000037990361
1.00000037990361
1.00000037990361
1.00000037990361
1.00000037990361
1.00000037990361
1.00000037990361
1.00000037990361
1.00000037990361
1.00000037990361
1.00000037990361
1.00000037990361
1.00000037990361
1.00000037990361
1.00000037990361
1.00000037990361
1.00000037990361
1.00000037990361
1.00000037990361
1.00000037990361
1.00000037990361
1.00000037990361
1.00000037990361
1.00000037990361
1.00000037990361
1.00000037990361
1.00000037990361
1.00000037990361
1.00000037990361
1.00000037990361
1.00000037990361
1.00000037990361
1.00000037990361
1.00000037990361
1.00000037990361
1.00000037990361
1.00000037990361
1.00000037990361
1.00000037990361
1.00000037990361
1.00000037990361
1.00000037990361
1.00000037990361
1.00000037990361
1.00000037990361
1.00000037990361
1.00000037990361
1.00000037990361
1.00000037990361
1.00000037990361
1.00000037990361
1.00000037990361
1.00000037990361
1.00000037990361
1.00000037990361
1.00000037990361
1.00000037990361
1.00000037990361
1.00000037990361
1.00000037990361
1.00000037990361
1.00000037990361
1.00000037990361
1.00000037990361
1.00000037990361
1.00000037990361
1.00000037990361
1.00000037990361
1.00000037990361
1.00000037990361
1.00000037990361
1.00000037990361
1.00000037990361
1.00000037990361
1.00000037990361
1.00000037990361
1.00000037990361
1.00000037990361
1.00000037990361
1.00000037990361
1.00000037990361
1.00000037990361
1.00000037990361
1.00000037990361
1.00000037990361
1.00000037990361
1.00000037990361
1.00000037990361
1.00000037990361
1.00000037990361
1.00000037990361
1.00000037990361
1.00000037990361
1.00000037990361
1.00000037990361
1.00000037990361
1.00000037990361
1.00000037990361
1.00000037990361
1.00000037990361
1.00000037990361
1.00000037990361
1.00000037990361
1.00000037990361
1.00000037990361
1.00000037990361
1.00000037990361
1.00000037990361
1.00000037990361
1.00000037990361
1.00000037990361
1.00000037990361
1.00000037990361
1.00000037990361
1.00000037990361
1.00000037990361
1.00000037990361
1.00000037990361
1.00000037990361
1.00000037990361
1.00000037990361
1.00000037990361
1.00000037990361
1.00000037990361
1.00000037990361
1.00000037990361
1.00000037990361
1.00000037990361
1.00000037990361
1.00000037990361
1.00000037990361
1.00000037990361
1.00000037990361
1.00000037990361
1.00000037990361
1.00000037990361
1.00000037990361
1.00000037990361
1.00000037990361
1.00000037990361
1.00000037990361
1.00000037990361
1.00000037990361
1.00000037990361
1.00000037990361
1.00000037990361
1.00000037990361
1.00000037990361
1.00000037990361
1.00000037990361
1.00000037990361
1.00000037990361
1.00000037990361
1.00000037990361
1.00000037990361
1.00000037990361
1.00000037990361
1.00000037990361
1.00000037990361
1.00000037990361
1.00000037990361
1.00000037990361
1.00000037990361
1.00000037990361
1.00000037990361
1.00000037990361
1.00000037990361
1.00000037990361
1.00000037990361
1.00000037990361
1.00000037990361
1.00000037990361
1.00000037990361
1.00000037990361
1.00000037990361
1.00000037990361
1.00000037990361
1.00000037990361
1.00000037990361
1.00000037990361
1.00000037990361
1.00000037990361
1.00000037990361
1.00000037990361
1.00000037990361
1.00000037990361
1.00000037990361
1.00000037990361
1.00000037990361
1.00000037990361
1.00000037990361
1.00000037990361
1.00000037990361
1.00000037990361
1.00000037990361
1.00000037990361
1.00000037990361
1.00000037990361
1.00000037990361
1.00000037990361
1.00000037990361
1.00000037990361
1.00000037990361
1.00000037990361
1.00000037990361
1.00000037990361
1.00000037990361
1.00000037990361
1.00000037990361
1.00000037990361
1.00000037990361
1.00000037990361
1.00000037990361
1.00000037990361
1.00000037990361
1.00000037990361
1.00000037990361
1.00000037990361
1.00000037990361
1.00000037990361
1.00000037990361
1.00000037990361
1.00000037990361
1.00000037990361
1.00000037990361
1.00000037990361
1.00000037990361
1.00000037990361
1.00000037990361
1.00000037990361
1.00000037990361
1.00000037990361
1.00000037990361
1.00000037990361
1.00000037990361
1.00000037990361
1.00000037990361
1.00000037990361
1.00000037990361
1.00000037990361
1.00000037990361
1.00000037990361
1.00000037990361
1.00000037990361
1.00000037990361
1.00000037990361
1.00000037990361
1.00000037990361
1.00000037990361
1.00000037990361
1.00000037990361
1.00000037990361
1.00000037990361
1.00000037990361
1.00000037990361
1.00000037990361
1.00000037990361
1.00000037990361
1.00000037990361
1.00000037990361
1.00000037990361
1.00000037990361
1.00000037990361
1.00000037990361
1.00000037990361
1.00000037990361
1.00000037990361
1.00000037990361
1.00000037990361
1.00000037990361
1.00000037990361
1.00000037990361
1.00000037990361
1.00000037990361
1.00000037990361
1.00000037990361
1.00000037990361
1.00000037990361
1.00000037990361
1.00000037990361
1.00000037990361
1.00000037990361
1.00000037990361
1.00000037990361
1.00000037990361
1.00000037990361
1.00000037990361
1.00000037990361
1.00000037990361
1.00000037990361
1.00000037990361
1.00000037990361
1.00000037990361
1.00000037990361
1.00000037990361
1.00000037990361
1.00000037990361
1.00000037990361
1.00000037990361
1.00000037990361
1.00000037990361
1.00000037990361
1.00000037990361
1.00000037990361
1.00000037990361
1.00000037990361
1.00000037990361
1.00000037990361
1.00000037990361
1.00000037990361
1.00000037990361
1.00000037990361
1.00000037990361
1.00000037990361
1.00000037990361
1.00000037990361
1.00000037990361
1.00000037990361
1.00000037990361
1.00000037990361
1.00000037990361
1.00000037990361
1.00000037990361
1.00000037990361
1.00000037990361
1.00000037990361
1.00000037990361
1.00000037990361
1.00000037990361
1.00000037990361
1.00000037990361
1.00000037990361
0.0
0.0
0.0
0.0
0.0
0.0
0.0
0.0
0.0
0.0
0.0
0.0
0.0
0.0
0.0
0.0
0.0
0.0
0.0
0.0
0.0
0.0
0.0
0.0
0.0
0.0
0.0
0.0
0.0
0.0
0.0
0.0
0.0
0.0
0.0
0.0
0.0
0.0
0.0
0.0
0.0
0.0
0.0
0.0
0.0
0.0
0.0
0.0
0.0
0.0
0.0
0.0
0.0
0.0
0.0
0.0
0.0
0.0
0.0
0.0
0.0
0.0
0.0
0.0
0.0
0.0
0.0
0.0
0.0
0.0
0.0
0.0
0.0
0.0
0.0
0.0
0.0
0.0
0.0
0.0
0.0
0.0
0.0
0.0
0.0
0.0
0.0
0.0
0.0
0.0
0.0
0.0
0.0
0.0
0.0
0.0
0.0
0.0
0.0
0.14247131727753068
0.2710481899086276
0.38544651467605556
0.48602975728596165
0.5735671403004566
0.6490618236899127
0.7136307328539844
0.7684225428981973
0.814563115623851
0.8531210512553078
0.8850874312538776
0.9113655239166434
0.9327673711919848
0.9500149491368126
0.9637442723644772
0.974511246824392
0.9827984696611164
0.98902234612861
0.9935402162520586
0.9966571722878697
0.9986324531783979
0.9996853201812909
0.2793588445877481
0.49704256827355453
0.6634203138486164
0.7876278512494094
0.8779253476621334
0.9416104750132078
0.9848406362466084
1.0125547036080134
1.0287694151743934
1.0367647619482616
1.038994406498517
1.0374038779872805
1.033558412460228
1.0285700993111693
1.0231977224064337
1.017990636280525
1.013319704413532
1.0092544934102268
1.0058934931259593
1.0033010764297194
1.0014536582659899
1.000363184855307
1.0000097010150188
1.000002231846542
1.0001108425290541
1.0001005526634517
1.0001082957816365
1.0000794035873073
0.9998624977053121
0.9998986946768483
1.000175128983982
0.9996185170905809
1.0001309798557931
1.000218480095663
1.0001895601572186
1.0001598131005311
0.9995722774389479
1.0000070390460134
0.9984596392559418
1.0002320622703098
1.0000121724249749
1.0001989366899962
0.9999513038077413
0.9994804968399306
0.9998732600484596
0.9997446343189345
1.0000857015772397
0.9997239554699091
0.9988494808277997
0.9999203285449085
0.9999924659870731
0.9999229496791351
0.9993795865456712
1.0000538903057692
1.0000524979735832
1.0000598014904785
0.9998346624182062
0.9999973559107828
0.9998622197425227
0.999792935597791
0.9998849967655958
1.0002317108895193
1.000045530010695
0.9992825405962458
0.8682381214601544
0.9999433522264854
0.9987310648790005
0.9994758727501069
1.0000772868263017
1.0001027569799639
0.9997385201047109
1.0000101662168737
1.0000161424861045
0.9999386573364545
1.0000963764778703
0.999844826751205
0.9996108837083721
0.9681876511318905
0.9995098474219872
0.9991487195348475
0.9999984496085993
0.9995165192100745
1.0001298704905894
1.0000182328383336
1.0000071902921228
1.000077495351658
0.9987734135059543
0.997517894963834
1.022308190932272
1.000098919376593
1.0000605746640867
0.9997966010628938
0.9964130291750055
0.9944970901260103
0.9929534780377661
0.9902539294568964
0.9882608418488866
0.9846234279339553
0.9822945990513197
0.977491285910813
1.0002488297547845
0.9994686984197201
1.0000604578766652
1.0000971874566085
0.99992129813103
1.0000130304892858
1.000062102257312
1.0002836792676475
1.0001661202205192
0.9999664132927056
1.0000429043561707
1.0000274730490575
1.0001525495914247
0.9993892932804552
0.9995202671906909
1.000083889653369
0.9997837143735554
1.0001999717109007
1.000104023222392
0.999103594128776
1.000004338242106
0.9994921119642108
1.0001367609963616
0.9994127056195649
0.9978971534071078
0.9990329247743913
0.9999277876039183
0.9986504046230336
0.9992928556028237
0.9983384716606911
0.9978702178081608
0.9964949497592077
0.9983844512844976